# vtk DataFile Version 3.0
#This file was generated by the deal.II library on 2026/2/22 at 5:11:33
ASCII
DATASET UNSTRUCTURED_GRID

POINTS 256 double
0 0 0
0.09375 0 0
0.09375 0 0
0.1875 0 0
0.1875 0 0
0.28125 0 0
0.28125 0 0
0.375 0 0
0.375 0 0
0.46875 0 0
0.46875 0 0
0.5625 0 0
0.5625 0 0
0.65625 0 0
0.65625 0 0
0.75 0 0
0.75 0 0
0.84375 0 0
0.84375 0 0
0.9375 0 0
0.9375 0 0
1.03125 0 0
1.03125 0 0
1.125 0 0
1.125 0 0
1.21875 0 0
1.21875 0 0
1.3125 0 0
1.3125 0 0
1.40625 0 0
1.40625 0 0
1.5 0 0
1.5 0 0
1.59375 0 0
1.59375 0 0
1.6875 0 0
1.6875 0 0
1.78125 0 0
1.78125 0 0
1.875 0 0
1.875 0 0
1.96875 0 0
1.96875 0 0
2.0625 0 0
2.0625 0 0
2.15625 0 0
2.15625 0 0
2.25 0 0
2.25 0 0
2.34375 0 0
2.34375 0 0
2.4375 0 0
2.4375 0 0
2.53125 0 0
2.53125 0 0
2.625 0 0
2.625 0 0
2.71875 0 0
2.71875 0 0
2.8125 0 0
2.8125 0 0
2.90625 0 0
2.90625 0 0
3 0 0
3 0 0
3.09375 0 0
3.09375 0 0
3.1875 0 0
3.1875 0 0
3.28125 0 0
3.28125 0 0
3.375 0 0
3.375 0 0
3.46875 0 0
3.46875 0 0
3.5625 0 0
3.5625 0 0
3.65625 0 0
3.65625 0 0
3.75 0 0
3.75 0 0
3.84375 0 0
3.84375 0 0
3.9375 0 0
3.9375 0 0
4.03125 0 0
4.03125 0 0
4.125 0 0
4.125 0 0
4.21875 0 0
4.21875 0 0
4.3125 0 0
4.3125 0 0
4.40625 0 0
4.40625 0 0
4.5 0 0
4.5 0 0
4.59375 0 0
4.59375 0 0
4.6875 0 0
4.6875 0 0
4.78125 0 0
4.78125 0 0
4.875 0 0
4.875 0 0
4.96875 0 0
4.96875 0 0
5.0625 0 0
5.0625 0 0
5.15625 0 0
5.15625 0 0
5.25 0 0
5.25 0 0
5.34375 0 0
5.34375 0 0
5.4375 0 0
5.4375 0 0
5.53125 0 0
5.53125 0 0
5.625 0 0
5.625 0 0
5.71875 0 0
5.71875 0 0
5.8125 0 0
5.8125 0 0
5.90625 0 0
5.90625 0 0
6 0 0
6 0 0
6.09375 0 0
6.09375 0 0
6.1875 0 0
6.1875 0 0
6.28125 0 0
6.28125 0 0
6.375 0 0
6.375 0 0
6.46875 0 0
6.46875 0 0
6.5625 0 0
6.5625 0 0
6.65625 0 0
6.65625 0 0
6.75 0 0
6.75 0 0
6.84375 0 0
6.84375 0 0
6.9375 0 0
6.9375 0 0
7.03125 0 0
7.03125 0 0
7.125 0 0
7.125 0 0
7.21875 0 0
7.21875 0 0
7.3125 0 0
7.3125 0 0
7.40625 0 0
7.40625 0 0
7.5 0 0
7.5 0 0
7.59375 0 0
7.59375 0 0
7.6875 0 0
7.6875 0 0
7.78125 0 0
7.78125 0 0
7.875 0 0
7.875 0 0
7.96875 0 0
7.96875 0 0
8.0625 0 0
8.0625 0 0
8.15625 0 0
8.15625 0 0
8.25 0 0
8.25 0 0
8.34375 0 0
8.34375 0 0
8.4375 0 0
8.4375 0 0
8.53125 0 0
8.53125 0 0
8.625 0 0
8.625 0 0
8.71875 0 0
8.71875 0 0
8.8125 0 0
8.8125 0 0
8.90625 0 0
8.90625 0 0
9 0 0
9 0 0
9.09375 0 0
9.09375 0 0
9.1875 0 0
9.1875 0 0
9.28125 0 0
9.28125 0 0
9.375 0 0
9.375 0 0
9.46875 0 0
9.46875 0 0
9.5625 0 0
9.5625 0 0
9.65625 0 0
9.65625 0 0
9.75 0 0
9.75 0 0
9.84375 0 0
9.84375 0 0
9.9375 0 0
9.9375 0 0
10.0312 0 0
10.0312 0 0
10.125 0 0
10.125 0 0
10.2188 0 0
10.2188 0 0
10.3125 0 0
10.3125 0 0
10.4062 0 0
10.4062 0 0
10.5 0 0
10.5 0 0
10.5938 0 0
10.5938 0 0
10.6875 0 0
10.6875 0 0
10.7812 0 0
10.7812 0 0
10.875 0 0
10.875 0 0
10.9688 0 0
10.9688 0 0
11.0625 0 0
11.0625 0 0
11.1562 0 0
11.1562 0 0
11.25 0 0
11.25 0 0
11.3438 0 0
11.3438 0 0
11.4375 0 0
11.4375 0 0
11.5312 0 0
11.5312 0 0
11.625 0 0
11.625 0 0
11.7188 0 0
11.7188 0 0
11.8125 0 0
11.8125 0 0
11.9062 0 0
11.9062 0 0
12 0 0

CELLS 128 384
2	0	1
2	2	3
2	4	5
2	6	7
2	8	9
2	10	11
2	12	13
2	14	15
2	16	17
2	18	19
2	20	21
2	22	23
2	24	25
2	26	27
2	28	29
2	30	31
2	32	33
2	34	35
2	36	37
2	38	39
2	40	41
2	42	43
2	44	45
2	46	47
2	48	49
2	50	51
2	52	53
2	54	55
2	56	57
2	58	59
2	60	61
2	62	63
2	64	65
2	66	67
2	68	69
2	70	71
2	72	73
2	74	75
2	76	77
2	78	79
2	80	81
2	82	83
2	84	85
2	86	87
2	88	89
2	90	91
2	92	93
2	94	95
2	96	97
2	98	99
2	100	101
2	102	103
2	104	105
2	106	107
2	108	109
2	110	111
2	112	113
2	114	115
2	116	117
2	118	119
2	120	121
2	122	123
2	124	125
2	126	127
2	128	129
2	130	131
2	132	133
2	134	135
2	136	137
2	138	139
2	140	141
2	142	143
2	144	145
2	146	147
2	148	149
2	150	151
2	152	153
2	154	155
2	156	157
2	158	159
2	160	161
2	162	163
2	164	165
2	166	167
2	168	169
2	170	171
2	172	173
2	174	175
2	176	177
2	178	179
2	180	181
2	182	183
2	184	185
2	186	187
2	188	189
2	190	191
2	192	193
2	194	195
2	196	197
2	198	199
2	200	201
2	202	203
2	204	205
2	206	207
2	208	209
2	210	211
2	212	213
2	214	215
2	216	217
2	218	219
2	220	221
2	222	223
2	224	225
2	226	227
2	228	229
2	230	231
2	232	233
2	234	235
2	236	237
2	238	239
2	240	241
2	242	243
2	244	245
2	246	247
2	248	249
2	250	251
2	252	253
2	254	255

CELL_TYPES 128
 3 3 3 3 3 3 3 3 3 3 3 3 3 3 3 3 3 3 3 3 3 3 3 3 3 3 3 3 3 3 3 3 3 3 3 3 3 3 3 3 3 3 3 3 3 3 3 3 3 3 3 3 3 3 3 3 3 3 3 3 3 3 3 3 3 3 3 3 3 3 3 3 3 3 3 3 3 3 3 3 3 3 3 3 3 3 3 3 3 3 3 3 3 3 3 3 3 3 3 3 3 3 3 3 3 3 3 3 3 3 3 3 3 3 3 3 3 3 3 3 3 3 3 3 3 3 3 3
POINT_DATA 256
SCALARS density double 1
LOOKUP_TABLE default
-0.00999992 -0.00998894 -0.00998894 -0.00995601 -0.00995601 -0.00990121 -0.00990121 -0.00982466 -0.00982466 -0.00972652 -0.00972652 -0.00960702 -0.00960702 -0.00946641 -0.00946641 -0.009305 -0.009305 -0.00912315 -0.00912315 -0.00892126 -0.00892126 -0.00869977 -0.00869977 -0.00845917 -0.00845917 -0.00819998 -0.00819998 -0.00792278 -0.00792278 -0.00762818 -0.00762818 -0.00731681 -0.00731681 -0.00698938 -0.00698938 -0.00664658 -0.00664658 -0.00628919 -0.00628919 -0.00591798 -0.00591798 -0.00553376 -0.00553376 -0.00513739 -0.00513739 -0.00472974 -0.00472974 -0.00431169 -0.00431169 -0.00388417 -0.00388417 -0.00344812 -0.00344812 -0.00300449 -0.00300449 -0.00255426 -0.00255426 -0.00209842 -0.00209842 -0.00163797 -0.00163797 -0.00117392 -0.00117392 -0.000707297 -0.000707297 -0.000239116 -0.000239116 0.000229591 0.000229591 0.000697794 0.000697794 0.00116446 0.00116446 0.00162858 0.00162858 0.00208911 0.00208911 0.00254506 0.00254506 0.00299541 0.00299541 0.00343918 0.00343918 0.0038754 0.0038754 0.00430311 0.00430311 0.00472136 0.00472136 0.00512924 0.00512924 0.00552585 0.00552585 0.00591032 0.00591032 0.00628181 0.00628181 0.0066395 0.0066395 0.0069826 0.0069826 0.00731036 0.00731036 0.00762207 0.00762207 0.00791703 0.00791703 0.00819459 0.00819459 0.00845416 0.00845416 0.00869515 0.00869515 0.00891704 0.00891704 0.00911934 0.00911934 0.0093016 0.0093016 0.00946343 0.00946343 0.00960448 0.00960448 0.00972442 0.00972442 0.009823 0.009823 0.0099 0.0099 0.00995525 0.00995525 0.00998863 0.00998863 0.0100001 0.0100001 0.00998954 0.00998954 0.00995706 0.00995706 0.00990271 0.00990271 0.00982661 0.00982661 0.00972891 0.00972891 0.00960985 0.00960985 0.00946967 0.00946967 0.00930869 0.00930869 0.00912726 0.00912726 0.00892578 0.00892578 0.00870469 0.00870469 0.00846448 0.00846448 0.00820567 0.00820567 0.00792883 0.00792883 0.00763458 0.00763458 0.00732356 0.00732356 0.00699644 0.00699644 0.00665396 0.00665396 0.00629686 0.00629686 0.00592592 0.00592592 0.00554197 0.00554197 0.00514584 0.00514584 0.00473841 0.00473841 0.00432057 0.00432057 0.00389324 0.00389324 0.00345735 0.00345735 0.00301387 0.00301387 0.00256377 0.00256377 0.00210803 0.00210803 0.00164767 0.00164767 0.00118368 0.00118368 0.000717099 0.000717099 0.000248939 0.000248939 -0.000219768 -0.000219768 -0.000687991 -0.000687991 -0.0011547 -0.0011547 -0.00161888 -0.00161888 -0.0020795 -0.0020795 -0.00253555 -0.00253555 -0.00298603 -0.00298603 -0.00342995 -0.00342995 -0.00386633 -0.00386633 -0.00429422 -0.00429422 -0.00471268 -0.00471268 -0.00512078 -0.00512078 -0.00551763 -0.00551763 -0.00590236 -0.00590236 -0.00627413 -0.00627413 -0.00663211 -0.00663211 -0.00697552 -0.00697552 -0.00730361 -0.00730361 -0.00761565 -0.00761565 -0.00791096 -0.00791096 -0.00818889 -0.00818889 -0.00844883 -0.00844883 -0.00869021 -0.00869021 -0.0089125 -0.0089125 -0.00911521 -0.00911521 -0.00929789 -0.00929789 -0.00946015 -0.00946015 -0.00960163 
SCALARS x_coordinate double 1
LOOKUP_TABLE default
0 0.09375 0.09375 0.1875 0.1875 0.28125 0.28125 0.375 0.375 0.46875 0.46875 0.5625 0.5625 0.65625 0.65625 0.75 0.75 0.84375 0.84375 0.9375 0.9375 1.03125 1.03125 1.125 1.125 1.21875 1.21875 1.3125 1.3125 1.40625 1.40625 1.5 1.5 1.59375 1.59375 1.6875 1.6875 1.78125 1.78125 1.875 1.875 1.96875 1.96875 2.0625 2.0625 2.15625 2.15625 2.25 2.25 2.34375 2.34375 2.4375 2.4375 2.53125 2.53125 2.625 2.625 2.71875 2.71875 2.8125 2.8125 2.90625 2.90625 3 3 3.09375 3.09375 3.1875 3.1875 3.28125 3.28125 3.375 3.375 3.46875 3.46875 3.5625 3.5625 3.65625 3.65625 3.75 3.75 3.84375 3.84375 3.9375 3.9375 4.03125 4.03125 4.125 4.125 4.21875 4.21875 4.3125 4.3125 4.40625 4.40625 4.5 4.5 4.59375 4.59375 4.6875 4.6875 4.78125 4.78125 4.875 4.875 4.96875 4.96875 5.0625 5.0625 5.15625 5.15625 5.25 5.25 5.34375 5.34375 5.4375 5.4375 5.53125 5.53125 5.625 5.625 5.71875 5.71875 5.8125 5.8125 5.90625 5.90625 6 6 6.09375 6.09375 6.1875 6.1875 6.28125 6.28125 6.375 6.375 6.46875 6.46875 6.5625 6.5625 6.65625 6.65625 6.75 6.75 6.84375 6.84375 6.9375 6.9375 7.03125 7.03125 7.125 7.125 7.21875 7.21875 7.3125 7.3125 7.40625 7.40625 7.5 7.5 7.59375 7.59375 7.6875 7.6875 7.78125 7.78125 7.875 7.875 7.96875 7.96875 8.0625 8.0625 8.15625 8.15625 8.25 8.25 8.34375 8.34375 8.4375 8.4375 8.53125 8.53125 8.625 8.625 8.71875 8.71875 8.8125 8.8125 8.90625 8.90625 9 9 9.09375 9.09375 9.1875 9.1875 9.28125 9.28125 9.375 9.375 9.46875 9.46875 9.5625 9.5625 9.65625 9.65625 9.75 9.75 9.84375 9.84375 9.9375 9.9375 10.0312 10.0312 10.125 10.125 10.2188 10.2188 10.3125 10.3125 10.4062 10.4062 10.5 10.5 10.5938 10.5938 10.6875 10.6875 10.7812 10.7812 10.875 10.875 10.9688 10.9688 11.0625 11.0625 11.1562 11.1562 11.25 11.25 11.3438 11.3438 11.4375 11.4375 11.5312 11.5312 11.625 11.625 11.7188 11.7188 11.8125 11.8125 11.9062 11.9062 12 
