# vtk DataFile Version 3.0
#This file was generated by the deal.II library on 2026/3/10 at 19:06:58
ASCII
DATASET UNSTRUCTURED_GRID

POINTS 512 double
0 0 0
0.0490874 0 0
0.0490874 0 0
0.0981748 0 0
0.0981748 0 0
0.147262 0 0
0.147262 0 0
0.19635 0 0
0.19635 0 0
0.245437 0 0
0.245437 0 0
0.294524 0 0
0.294524 0 0
0.343612 0 0
0.343612 0 0
0.392699 0 0
0.392699 0 0
0.441786 0 0
0.441786 0 0
0.490874 0 0
0.490874 0 0
0.539961 0 0
0.539961 0 0
0.589049 0 0
0.589049 0 0
0.638136 0 0
0.638136 0 0
0.687223 0 0
0.687223 0 0
0.736311 0 0
0.736311 0 0
0.785398 0 0
0.785398 0 0
0.834486 0 0
0.834486 0 0
0.883573 0 0
0.883573 0 0
0.93266 0 0
0.93266 0 0
0.981748 0 0
0.981748 0 0
1.03084 0 0
1.03084 0 0
1.07992 0 0
1.07992 0 0
1.12901 0 0
1.12901 0 0
1.1781 0 0
1.1781 0 0
1.22718 0 0
1.22718 0 0
1.27627 0 0
1.27627 0 0
1.32536 0 0
1.32536 0 0
1.37445 0 0
1.37445 0 0
1.42353 0 0
1.42353 0 0
1.47262 0 0
1.47262 0 0
1.52171 0 0
1.52171 0 0
1.5708 0 0
1.5708 0 0
1.61988 0 0
1.61988 0 0
1.66897 0 0
1.66897 0 0
1.71806 0 0
1.71806 0 0
1.76715 0 0
1.76715 0 0
1.81623 0 0
1.81623 0 0
1.86532 0 0
1.86532 0 0
1.91441 0 0
1.91441 0 0
1.9635 0 0
1.9635 0 0
2.01258 0 0
2.01258 0 0
2.06167 0 0
2.06167 0 0
2.11076 0 0
2.11076 0 0
2.15984 0 0
2.15984 0 0
2.20893 0 0
2.20893 0 0
2.25802 0 0
2.25802 0 0
2.30711 0 0
2.30711 0 0
2.35619 0 0
2.35619 0 0
2.40528 0 0
2.40528 0 0
2.45437 0 0
2.45437 0 0
2.50346 0 0
2.50346 0 0
2.55254 0 0
2.55254 0 0
2.60163 0 0
2.60163 0 0
2.65072 0 0
2.65072 0 0
2.69981 0 0
2.69981 0 0
2.74889 0 0
2.74889 0 0
2.79798 0 0
2.79798 0 0
2.84707 0 0
2.84707 0 0
2.89616 0 0
2.89616 0 0
2.94524 0 0
2.94524 0 0
2.99433 0 0
2.99433 0 0
3.04342 0 0
3.04342 0 0
3.09251 0 0
3.09251 0 0
3.14159 0 0
3.14159 0 0
3.19068 0 0
3.19068 0 0
3.23977 0 0
3.23977 0 0
3.28885 0 0
3.28885 0 0
3.33794 0 0
3.33794 0 0
3.38703 0 0
3.38703 0 0
3.43612 0 0
3.43612 0 0
3.4852 0 0
3.4852 0 0
3.53429 0 0
3.53429 0 0
3.58338 0 0
3.58338 0 0
3.63247 0 0
3.63247 0 0
3.68155 0 0
3.68155 0 0
3.73064 0 0
3.73064 0 0
3.77973 0 0
3.77973 0 0
3.82882 0 0
3.82882 0 0
3.8779 0 0
3.8779 0 0
3.92699 0 0
3.92699 0 0
3.97608 0 0
3.97608 0 0
4.02517 0 0
4.02517 0 0
4.07425 0 0
4.07425 0 0
4.12334 0 0
4.12334 0 0
4.17243 0 0
4.17243 0 0
4.22152 0 0
4.22152 0 0
4.2706 0 0
4.2706 0 0
4.31969 0 0
4.31969 0 0
4.36878 0 0
4.36878 0 0
4.41786 0 0
4.41786 0 0
4.46695 0 0
4.46695 0 0
4.51604 0 0
4.51604 0 0
4.56513 0 0
4.56513 0 0
4.61421 0 0
4.61421 0 0
4.6633 0 0
4.6633 0 0
4.71239 0 0
4.71239 0 0
4.76148 0 0
4.76148 0 0
4.81056 0 0
4.81056 0 0
4.85965 0 0
4.85965 0 0
4.90874 0 0
4.90874 0 0
4.95783 0 0
4.95783 0 0
5.00691 0 0
5.00691 0 0
5.056 0 0
5.056 0 0
5.10509 0 0
5.10509 0 0
5.15418 0 0
5.15418 0 0
5.20326 0 0
5.20326 0 0
5.25235 0 0
5.25235 0 0
5.30144 0 0
5.30144 0 0
5.35052 0 0
5.35052 0 0
5.39961 0 0
5.39961 0 0
5.4487 0 0
5.4487 0 0
5.49779 0 0
5.49779 0 0
5.54687 0 0
5.54687 0 0
5.59596 0 0
5.59596 0 0
5.64505 0 0
5.64505 0 0
5.69414 0 0
5.69414 0 0
5.74322 0 0
5.74322 0 0
5.79231 0 0
5.79231 0 0
5.8414 0 0
5.8414 0 0
5.89049 0 0
5.89049 0 0
5.93957 0 0
5.93957 0 0
5.98866 0 0
5.98866 0 0
6.03775 0 0
6.03775 0 0
6.08684 0 0
6.08684 0 0
6.13592 0 0
6.13592 0 0
6.18501 0 0
6.18501 0 0
6.2341 0 0
6.2341 0 0
6.28319 0 0
6.28319 0 0
6.33227 0 0
6.33227 0 0
6.38136 0 0
6.38136 0 0
6.43045 0 0
6.43045 0 0
6.47953 0 0
6.47953 0 0
6.52862 0 0
6.52862 0 0
6.57771 0 0
6.57771 0 0
6.6268 0 0
6.6268 0 0
6.67588 0 0
6.67588 0 0
6.72497 0 0
6.72497 0 0
6.77406 0 0
6.77406 0 0
6.82315 0 0
6.82315 0 0
6.87223 0 0
6.87223 0 0
6.92132 0 0
6.92132 0 0
6.97041 0 0
6.97041 0 0
7.0195 0 0
7.0195 0 0
7.06858 0 0
7.06858 0 0
7.11767 0 0
7.11767 0 0
7.16676 0 0
7.16676 0 0
7.21585 0 0
7.21585 0 0
7.26493 0 0
7.26493 0 0
7.31402 0 0
7.31402 0 0
7.36311 0 0
7.36311 0 0
7.4122 0 0
7.4122 0 0
7.46128 0 0
7.46128 0 0
7.51037 0 0
7.51037 0 0
7.55946 0 0
7.55946 0 0
7.60854 0 0
7.60854 0 0
7.65763 0 0
7.65763 0 0
7.70672 0 0
7.70672 0 0
7.75581 0 0
7.75581 0 0
7.80489 0 0
7.80489 0 0
7.85398 0 0
7.85398 0 0
7.90307 0 0
7.90307 0 0
7.95216 0 0
7.95216 0 0
8.00124 0 0
8.00124 0 0
8.05033 0 0
8.05033 0 0
8.09942 0 0
8.09942 0 0
8.14851 0 0
8.14851 0 0
8.19759 0 0
8.19759 0 0
8.24668 0 0
8.24668 0 0
8.29577 0 0
8.29577 0 0
8.34486 0 0
8.34486 0 0
8.39394 0 0
8.39394 0 0
8.44303 0 0
8.44303 0 0
8.49212 0 0
8.49212 0 0
8.54121 0 0
8.54121 0 0
8.59029 0 0
8.59029 0 0
8.63938 0 0
8.63938 0 0
8.68847 0 0
8.68847 0 0
8.73755 0 0
8.73755 0 0
8.78664 0 0
8.78664 0 0
8.83573 0 0
8.83573 0 0
8.88482 0 0
8.88482 0 0
8.9339 0 0
8.9339 0 0
8.98299 0 0
8.98299 0 0
9.03208 0 0
9.03208 0 0
9.08117 0 0
9.08117 0 0
9.13025 0 0
9.13025 0 0
9.17934 0 0
9.17934 0 0
9.22843 0 0
9.22843 0 0
9.27752 0 0
9.27752 0 0
9.3266 0 0
9.3266 0 0
9.37569 0 0
9.37569 0 0
9.42478 0 0
9.42478 0 0
9.47387 0 0
9.47387 0 0
9.52295 0 0
9.52295 0 0
9.57204 0 0
9.57204 0 0
9.62113 0 0
9.62113 0 0
9.67021 0 0
9.67021 0 0
9.7193 0 0
9.7193 0 0
9.76839 0 0
9.76839 0 0
9.81748 0 0
9.81748 0 0
9.86656 0 0
9.86656 0 0
9.91565 0 0
9.91565 0 0
9.96474 0 0
9.96474 0 0
10.0138 0 0
10.0138 0 0
10.0629 0 0
10.0629 0 0
10.112 0 0
10.112 0 0
10.1611 0 0
10.1611 0 0
10.2102 0 0
10.2102 0 0
10.2593 0 0
10.2593 0 0
10.3084 0 0
10.3084 0 0
10.3574 0 0
10.3574 0 0
10.4065 0 0
10.4065 0 0
10.4556 0 0
10.4556 0 0
10.5047 0 0
10.5047 0 0
10.5538 0 0
10.5538 0 0
10.6029 0 0
10.6029 0 0
10.652 0 0
10.652 0 0
10.701 0 0
10.701 0 0
10.7501 0 0
10.7501 0 0
10.7992 0 0
10.7992 0 0
10.8483 0 0
10.8483 0 0
10.8974 0 0
10.8974 0 0
10.9465 0 0
10.9465 0 0
10.9956 0 0
10.9956 0 0
11.0447 0 0
11.0447 0 0
11.0937 0 0
11.0937 0 0
11.1428 0 0
11.1428 0 0
11.1919 0 0
11.1919 0 0
11.241 0 0
11.241 0 0
11.2901 0 0
11.2901 0 0
11.3392 0 0
11.3392 0 0
11.3883 0 0
11.3883 0 0
11.4374 0 0
11.4374 0 0
11.4864 0 0
11.4864 0 0
11.5355 0 0
11.5355 0 0
11.5846 0 0
11.5846 0 0
11.6337 0 0
11.6337 0 0
11.6828 0 0
11.6828 0 0
11.7319 0 0
11.7319 0 0
11.781 0 0
11.781 0 0
11.8301 0 0
11.8301 0 0
11.8791 0 0
11.8791 0 0
11.9282 0 0
11.9282 0 0
11.9773 0 0
11.9773 0 0
12.0264 0 0
12.0264 0 0
12.0755 0 0
12.0755 0 0
12.1246 0 0
12.1246 0 0
12.1737 0 0
12.1737 0 0
12.2228 0 0
12.2228 0 0
12.2718 0 0
12.2718 0 0
12.3209 0 0
12.3209 0 0
12.37 0 0
12.37 0 0
12.4191 0 0
12.4191 0 0
12.4682 0 0
12.4682 0 0
12.5173 0 0
12.5173 0 0
12.5664 0 0

CELLS 256 768
2	0	1
2	2	3
2	4	5
2	6	7
2	8	9
2	10	11
2	12	13
2	14	15
2	16	17
2	18	19
2	20	21
2	22	23
2	24	25
2	26	27
2	28	29
2	30	31
2	32	33
2	34	35
2	36	37
2	38	39
2	40	41
2	42	43
2	44	45
2	46	47
2	48	49
2	50	51
2	52	53
2	54	55
2	56	57
2	58	59
2	60	61
2	62	63
2	64	65
2	66	67
2	68	69
2	70	71
2	72	73
2	74	75
2	76	77
2	78	79
2	80	81
2	82	83
2	84	85
2	86	87
2	88	89
2	90	91
2	92	93
2	94	95
2	96	97
2	98	99
2	100	101
2	102	103
2	104	105
2	106	107
2	108	109
2	110	111
2	112	113
2	114	115
2	116	117
2	118	119
2	120	121
2	122	123
2	124	125
2	126	127
2	128	129
2	130	131
2	132	133
2	134	135
2	136	137
2	138	139
2	140	141
2	142	143
2	144	145
2	146	147
2	148	149
2	150	151
2	152	153
2	154	155
2	156	157
2	158	159
2	160	161
2	162	163
2	164	165
2	166	167
2	168	169
2	170	171
2	172	173
2	174	175
2	176	177
2	178	179
2	180	181
2	182	183
2	184	185
2	186	187
2	188	189
2	190	191
2	192	193
2	194	195
2	196	197
2	198	199
2	200	201
2	202	203
2	204	205
2	206	207
2	208	209
2	210	211
2	212	213
2	214	215
2	216	217
2	218	219
2	220	221
2	222	223
2	224	225
2	226	227
2	228	229
2	230	231
2	232	233
2	234	235
2	236	237
2	238	239
2	240	241
2	242	243
2	244	245
2	246	247
2	248	249
2	250	251
2	252	253
2	254	255
2	256	257
2	258	259
2	260	261
2	262	263
2	264	265
2	266	267
2	268	269
2	270	271
2	272	273
2	274	275
2	276	277
2	278	279
2	280	281
2	282	283
2	284	285
2	286	287
2	288	289
2	290	291
2	292	293
2	294	295
2	296	297
2	298	299
2	300	301
2	302	303
2	304	305
2	306	307
2	308	309
2	310	311
2	312	313
2	314	315
2	316	317
2	318	319
2	320	321
2	322	323
2	324	325
2	326	327
2	328	329
2	330	331
2	332	333
2	334	335
2	336	337
2	338	339
2	340	341
2	342	343
2	344	345
2	346	347
2	348	349
2	350	351
2	352	353
2	354	355
2	356	357
2	358	359
2	360	361
2	362	363
2	364	365
2	366	367
2	368	369
2	370	371
2	372	373
2	374	375
2	376	377
2	378	379
2	380	381
2	382	383
2	384	385
2	386	387
2	388	389
2	390	391
2	392	393
2	394	395
2	396	397
2	398	399
2	400	401
2	402	403
2	404	405
2	406	407
2	408	409
2	410	411
2	412	413
2	414	415
2	416	417
2	418	419
2	420	421
2	422	423
2	424	425
2	426	427
2	428	429
2	430	431
2	432	433
2	434	435
2	436	437
2	438	439
2	440	441
2	442	443
2	444	445
2	446	447
2	448	449
2	450	451
2	452	453
2	454	455
2	456	457
2	458	459
2	460	461
2	462	463
2	464	465
2	466	467
2	468	469
2	470	471
2	472	473
2	474	475
2	476	477
2	478	479
2	480	481
2	482	483
2	484	485
2	486	487
2	488	489
2	490	491
2	492	493
2	494	495
2	496	497
2	498	499
2	500	501
2	502	503
2	504	505
2	506	507
2	508	509
2	510	511

CELL_TYPES 256
 3 3 3 3 3 3 3 3 3 3 3 3 3 3 3 3 3 3 3 3 3 3 3 3 3 3 3 3 3 3 3 3 3 3 3 3 3 3 3 3 3 3 3 3 3 3 3 3 3 3 3 3 3 3 3 3 3 3 3 3 3 3 3 3 3 3 3 3 3 3 3 3 3 3 3 3 3 3 3 3 3 3 3 3 3 3 3 3 3 3 3 3 3 3 3 3 3 3 3 3 3 3 3 3 3 3 3 3 3 3 3 3 3 3 3 3 3 3 3 3 3 3 3 3 3 3 3 3 3 3 3 3 3 3 3 3 3 3 3 3 3 3 3 3 3 3 3 3 3 3 3 3 3 3 3 3 3 3 3 3 3 3 3 3 3 3 3 3 3 3 3 3 3 3 3 3 3 3 3 3 3 3 3 3 3 3 3 3 3 3 3 3 3 3 3 3 3 3 3 3 3 3 3 3 3 3 3 3 3 3 3 3 3 3 3 3 3 3 3 3 3 3 3 3 3 3 3 3 3 3 3 3 3 3 3 3 3 3 3 3 3 3 3 3 3 3 3 3 3 3 3 3 3 3 3 3
POINT_DATA 512
VECTORS electric_field double
-12.4398 0 0
-12.3907 0 0
-12.3907 0 0
-12.3416 0 0
-12.3416 0 0
-12.2925 0 0
-12.2925 0 0
-12.2434 0 0
-12.2434 0 0
-12.1943 0 0
-12.1943 0 0
-12.1452 0 0
-12.1452 0 0
-12.0962 0 0
-12.0962 0 0
-12.0471 0 0
-12.0471 0 0
-11.998 0 0
-11.998 0 0
-11.9489 0 0
-11.9489 0 0
-11.8998 0 0
-11.8998 0 0
-11.8507 0 0
-11.8507 0 0
-11.8016 0 0
-11.8016 0 0
-11.7526 0 0
-11.7526 0 0
-11.7035 0 0
-11.7035 0 0
-11.6544 0 0
-11.6544 0 0
-11.6053 0 0
-11.6053 0 0
-11.5562 0 0
-11.5562 0 0
-11.5071 0 0
-11.5071 0 0
-11.458 0 0
-11.458 0 0
-11.4089 0 0
-11.4089 0 0
-11.3599 0 0
-11.3599 0 0
-11.3108 0 0
-11.3108 0 0
-11.2617 0 0
-11.2617 0 0
-11.2126 0 0
-11.2126 0 0
-11.1635 0 0
-11.1635 0 0
-11.1144 0 0
-11.1144 0 0
-11.0653 0 0
-11.0653 0 0
-11.0162 0 0
-11.0162 0 0
-10.9672 0 0
-10.9672 0 0
-10.9181 0 0
-10.9181 0 0
-10.869 0 0
-10.869 0 0
-10.8199 0 0
-10.8199 0 0
-10.7708 0 0
-10.7708 0 0
-10.7217 0 0
-10.7217 0 0
-10.6726 0 0
-10.6726 0 0
-10.6235 0 0
-10.6235 0 0
-10.5745 0 0
-10.5745 0 0
-10.5254 0 0
-10.5254 0 0
-10.4763 0 0
-10.4763 0 0
-10.4272 0 0
-10.4272 0 0
-10.3781 0 0
-10.3781 0 0
-10.329 0 0
-10.329 0 0
-10.2799 0 0
-10.2799 0 0
-10.2308 0 0
-10.2308 0 0
-10.1818 0 0
-10.1818 0 0
-10.1327 0 0
-10.1327 0 0
-10.0836 0 0
-10.0836 0 0
-10.0345 0 0
-10.0345 0 0
-9.9854 0 0
-9.9854 0 0
-9.93632 0 0
-9.93632 0 0
-9.88723 0 0
-9.88723 0 0
-9.83814 0 0
-9.83814 0 0
-9.78905 0 0
-9.78905 0 0
-9.73997 0 0
-9.73997 0 0
-9.69088 0 0
-9.69088 0 0
-9.64179 0 0
-9.64179 0 0
-9.5927 0 0
-9.5927 0 0
-9.54362 0 0
-9.54362 0 0
-9.49453 0 0
-9.49453 0 0
-9.44544 0 0
-9.44544 0 0
-9.39636 0 0
-9.39636 0 0
-9.34727 0 0
-9.34727 0 0
-9.29818 0 0
-9.29818 0 0
-9.24909 0 0
-9.24909 0 0
-9.20001 0 0
-9.20001 0 0
-9.15092 0 0
-9.15092 0 0
-9.10183 0 0
-9.10183 0 0
-9.05274 0 0
-9.05274 0 0
-9.00366 0 0
-9.00366 0 0
-8.95457 0 0
-8.95457 0 0
-8.90548 0 0
-8.90548 0 0
-8.85639 0 0
-8.85639 0 0
-8.80731 0 0
-8.80731 0 0
-8.75822 0 0
-8.75822 0 0
-8.70913 0 0
-8.70913 0 0
-8.66004 0 0
-8.66004 0 0
-8.61096 0 0
-8.61096 0 0
-8.56187 0 0
-8.56187 0 0
-8.51278 0 0
-8.51278 0 0
-8.46369 0 0
-8.46369 0 0
-8.41461 0 0
-8.41461 0 0
-8.36552 0 0
-8.36552 0 0
-8.31643 0 0
-8.31643 0 0
-8.26735 0 0
-8.26735 0 0
-8.21826 0 0
-8.21826 0 0
-8.16917 0 0
-8.16917 0 0
-8.12008 0 0
-8.12008 0 0
-8.071 0 0
-8.071 0 0
-8.02191 0 0
-8.02191 0 0
-7.97282 0 0
-7.97282 0 0
-7.92373 0 0
-7.92373 0 0
-7.87465 0 0
-7.87465 0 0
-7.82556 0 0
-7.82556 0 0
-7.77647 0 0
-7.77647 0 0
-7.72738 0 0
-7.72738 0 0
-7.6783 0 0
-7.6783 0 0
-7.62921 0 0
-7.62921 0 0
-7.58012 0 0
-7.58012 0 0
-7.53103 0 0
-7.53103 0 0
-7.48195 0 0
-7.48195 0 0
-7.43286 0 0
-7.43286 0 0
-7.38377 0 0
-7.38377 0 0
-7.33468 0 0
-7.33468 0 0
-7.2856 0 0
-7.2856 0 0
-7.23651 0 0
-7.23651 0 0
-7.18742 0 0
-7.18742 0 0
-7.13834 0 0
-7.13834 0 0
-7.08925 0 0
-7.08925 0 0
-7.04016 0 0
-7.04016 0 0
-6.99107 0 0
-6.99107 0 0
-6.94199 0 0
-6.94199 0 0
-6.8929 0 0
-6.8929 0 0
-6.84381 0 0
-6.84381 0 0
-6.79472 0 0
-6.79472 0 0
-6.74564 0 0
-6.74564 0 0
-6.69655 0 0
-6.69655 0 0
-6.64746 0 0
-6.64746 0 0
-6.59837 0 0
-6.59837 0 0
-6.54929 0 0
-6.54929 0 0
-6.5002 0 0
-6.5002 0 0
-6.45111 0 0
-6.45111 0 0
-6.40202 0 0
-6.40202 0 0
-6.35294 0 0
-6.35294 0 0
-6.30385 0 0
-6.30385 0 0
-6.25476 0 0
-6.25476 0 0
-6.20568 0 0
-6.20568 0 0
-6.15659 0 0
-6.15659 0 0
-6.1075 0 0
-6.1075 0 0
-6.05841 0 0
-6.05841 0 0
-6.00933 0 0
-6.00933 0 0
-5.96024 0 0
-5.96024 0 0
-5.91115 0 0
-5.91115 0 0
-5.86206 0 0
-5.86206 0 0
-5.81298 0 0
-5.81298 0 0
-5.76389 0 0
-5.76389 0 0
-5.7148 0 0
-5.7148 0 0
-5.66571 0 0
-5.66571 0 0
-5.61663 0 0
-5.61663 0 0
-5.56754 0 0
-5.56754 0 0
-5.51845 0 0
-5.51845 0 0
-5.46936 0 0
-5.46936 0 0
-5.42028 0 0
-5.42028 0 0
-5.37119 0 0
-5.37119 0 0
-5.3221 0 0
-5.3221 0 0
-5.27302 0 0
-5.27302 0 0
-5.22393 0 0
-5.22393 0 0
-5.17484 0 0
-5.17484 0 0
-5.12575 0 0
-5.12575 0 0
-5.07667 0 0
-5.07667 0 0
-5.02758 0 0
-5.02758 0 0
-4.97849 0 0
-4.97849 0 0
-4.9294 0 0
-4.9294 0 0
-4.88032 0 0
-4.88032 0 0
-4.83123 0 0
-4.83123 0 0
-4.78214 0 0
-4.78214 0 0
-4.73305 0 0
-4.73305 0 0
-4.68397 0 0
-4.68397 0 0
-4.63488 0 0
-4.63488 0 0
-4.58579 0 0
-4.58579 0 0
-4.5367 0 0
-4.5367 0 0
-4.48762 0 0
-4.48762 0 0
-4.43853 0 0
-4.43853 0 0
-4.38944 0 0
-4.38944 0 0
-4.34035 0 0
-4.34035 0 0
-4.29127 0 0
-4.29127 0 0
-4.24218 0 0
-4.24218 0 0
-4.19309 0 0
-4.19309 0 0
-4.144 0 0
-4.144 0 0
-4.09492 0 0
-4.09492 0 0
-4.04583 0 0
-4.04583 0 0
-3.99674 0 0
-3.99674 0 0
-3.94766 0 0
-3.94766 0 0
-3.89857 0 0
-3.89857 0 0
-3.84948 0 0
-3.84948 0 0
-3.80039 0 0
-3.80039 0 0
-3.75131 0 0
-3.75131 0 0
-3.70222 0 0
-3.70222 0 0
-3.65313 0 0
-3.65313 0 0
-3.60404 0 0
-3.60404 0 0
-3.55496 0 0
-3.55496 0 0
-3.50587 0 0
-3.50587 0 0
-3.45678 0 0
-3.45678 0 0
-3.40769 0 0
-3.40769 0 0
-3.35861 0 0
-3.35861 0 0
-3.30952 0 0
-3.30952 0 0
-3.26043 0 0
-3.26043 0 0
-3.21134 0 0
-3.21134 0 0
-3.16226 0 0
-3.16226 0 0
-3.11317 0 0
-3.11317 0 0
-3.06408 0 0
-3.06408 0 0
-3.015 0 0
-3.015 0 0
-2.96591 0 0
-2.96591 0 0
-2.91682 0 0
-2.91682 0 0
-2.86773 0 0
-2.86773 0 0
-2.81865 0 0
-2.81865 0 0
-2.76956 0 0
-2.76956 0 0
-2.72047 0 0
-2.72047 0 0
-2.67138 0 0
-2.67138 0 0
-2.6223 0 0
-2.6223 0 0
-2.57321 0 0
-2.57321 0 0
-2.52412 0 0
-2.52412 0 0
-2.47503 0 0
-2.47503 0 0
-2.42595 0 0
-2.42595 0 0
-2.37686 0 0
-2.37686 0 0
-2.32777 0 0
-2.32777 0 0
-2.27868 0 0
-2.27868 0 0
-2.2296 0 0
-2.2296 0 0
-2.18051 0 0
-2.18051 0 0
-2.13142 0 0
-2.13142 0 0
-2.08233 0 0
-2.08233 0 0
-2.03325 0 0
-2.03325 0 0
-1.98416 0 0
-1.98416 0 0
-1.93507 0 0
-1.93507 0 0
-1.88599 0 0
-1.88599 0 0
-1.8369 0 0
-1.8369 0 0
-1.78781 0 0
-1.78781 0 0
-1.73872 0 0
-1.73872 0 0
-1.68964 0 0
-1.68964 0 0
-1.64055 0 0
-1.64055 0 0
-1.59146 0 0
-1.59146 0 0
-1.54237 0 0
-1.54237 0 0
-1.49332 0 0
-1.4933 0 0
-1.44428 0 0
-1.44428 0 0
-1.39519 0 0
-1.39519 0 0
-1.34611 0 0
-1.34611 0 0
-1.29702 0 0
-1.29702 0 0
-1.24793 0 0
-1.24789 0 0
-1.19897 0 0
-1.19896 0 0
-1.14988 0 0
-1.14989 0 0
-1.1008 0 0
-1.10079 0 0
-1.05173 0 0
-1.05174 0 0
-1.00268 0 0
-1.00268 0 0
-0.953611 0 0
-0.953609 0 0
-0.904593 0 0
-0.904596 0 0
-0.855646 0 0
-0.855645 0 0
-0.806801 0 0
-0.806842 0 0
-0.758363 0 0
-0.758395 0 0
-0.71014 0 0
-0.710095 0 0
-0.662639 0 0
-0.662672 0 0
-0.615482 0 0
-0.615496 0 0
-0.568798 0 0
-0.568748 0 0
-0.523503 0 0
-0.523437 0 0
-0.478636 0 0
-0.478641 0 0
-0.435059 0 0
-0.435035 0 0
-0.39249 0 0
-0.39263 0 0
-0.351224 0 0
-0.35113 0 0
-0.311074 0 0
-0.31121 0 0
-0.272356 0 0
-0.27229 0 0
-0.234461 0 0
-0.234549 0 0
-0.198329 0 0
-0.198267 0 0
-0.163256 0 0
-0.163259 0 0
-0.130043 0 0
-0.130088 0 0
-0.0981842 0 0
-0.0981748 0 0
-0.0490874 0 0
-0.0490874 0 0
1.09139e-11 0 0
SCALARS potential double 1
LOOKUP_TABLE default
0 0.609431 0.609431 1.21645 1.21645 1.82106 1.82106 2.42327 2.42327 3.02306 3.02306 3.62044 3.62044 4.21542 4.21542 4.80798 4.80798 5.39814 5.39814 5.98588 5.98588 6.57122 6.57122 7.15414 7.15414 7.73466 7.73466 8.31277 8.31277 8.88846 8.88846 9.46175 9.46175 10.0326 10.0326 10.6011 10.6011 11.1672 11.1672 11.7308 11.7308 12.292 12.292 12.8509 12.8509 13.4073 13.4073 13.9613 13.9613 14.5129 14.5129 15.0621 15.0621 15.6089 15.6089 16.1533 16.1533 16.6952 16.6952 17.2348 17.2348 17.7719 17.7719 18.3067 18.3067 18.839 18.839 19.3689 19.3689 19.8964 19.8964 20.4215 20.4215 20.9442 20.9442 21.4645 21.4645 21.9823 21.9823 22.4978 22.4978 23.0108 23.0108 23.5215 23.5215 24.0297 24.0297 24.5355 24.5355 25.0389 25.0389 25.5399 25.5399 26.0385 26.0385 26.5347 26.5347 27.0285 27.0285 27.5198 27.5198 28.0088 28.0088 28.4953 28.4953 28.9795 28.9795 29.4612 29.4612 29.9405 29.9405 30.4174 30.4174 30.8919 30.8919 31.364 31.364 31.8337 31.8337 32.3009 32.3009 32.7658 32.7658 33.2282 33.2282 33.6883 33.6883 34.1459 34.1459 34.6011 34.6011 35.0539 35.0539 35.5043 35.5043 35.9523 35.9523 36.3979 36.3979 36.8411 36.8411 37.2818 37.2818 37.7202 37.7202 38.1561 38.1561 38.5897 38.5897 39.0208 39.0208 39.4495 39.4495 39.8758 39.8758 40.2997 40.2997 40.7212 40.7212 41.1402 41.1402 41.5569 41.5569 41.9712 41.9712 42.383 42.383 42.7924 42.7924 43.1995 43.1995 43.6041 43.6041 44.0063 44.0063 44.4061 44.4061 44.8035 44.8035 45.1985 45.1985 45.591 45.591 45.9812 45.9812 46.3689 46.3689 46.7543 46.7543 47.1372 47.1372 47.5177 47.5177 47.8959 47.8959 48.2716 48.2716 48.6449 48.6449 49.0157 49.0157 49.3842 49.3842 49.7503 49.7503 50.1139 50.1139 50.4752 50.4752 50.834 50.834 51.1904 51.1904 51.5445 51.5445 51.8961 51.8961 52.2453 52.2453 52.592 52.592 52.9364 52.9364 53.2784 53.2784 53.618 53.618 53.9551 53.9551 54.2898 54.2898 54.6222 54.6222 54.9521 54.9521 55.2796 55.2796 55.6047 55.6047 55.9274 55.9274 56.2477 56.2477 56.5656 56.5656 56.881 56.881 57.1941 57.1941 57.5047 57.5047 57.813 57.813 58.1188 58.1188 58.4222 58.4222 58.7232 58.7232 59.0218 59.0218 59.318 59.318 59.6118 59.6118 59.9031 59.9031 60.1921 60.1921 60.4786 60.4786 60.7628 60.7628 61.0445 61.0445 61.3238 61.3238 61.6007 61.6007 61.8752 61.8752 62.1473 62.1473 62.417 62.417 62.6843 62.6843 62.9491 62.9491 63.2116 63.2116 63.4716 63.4716 63.7293 63.7293 63.9845 63.9845 64.2373 64.2373 64.4877 64.4877 64.7357 64.7357 64.9813 64.9813 65.2245 65.2245 65.4652 65.4652 65.7036 65.7036 65.9395 65.9395 66.1731 66.1731 66.4042 66.4042 66.6329 66.6329 66.8592 66.8592 67.0831 67.0831 67.3046 67.3046 67.5237 67.5237 67.7404 67.7404 67.9546 67.9546 68.1665 68.1665 68.3759 68.3759 68.583 68.583 68.7876 68.7876 68.9898 68.9898 69.1896 69.1896 69.387 69.387 69.582 69.582 69.7746 69.7746 69.9647 69.9647 70.1525 70.1525 70.3378 70.3378 70.5208 70.5208 70.7013 70.7013 70.8794 70.8794 71.0551 71.0551 71.2284 71.2284 71.3993 71.3993 71.5678 71.5678 71.7339 71.7339 71.8975 71.8975 72.0588 72.0588 72.2176 72.2176 72.374 72.374 72.5281 72.5281 72.6797 72.6797 72.8289 72.8289 72.9757 72.9757 73.1201 73.1201 73.262 73.262 73.4016 73.4016 73.5387 73.5387 73.6735 73.6735 73.8058 73.8058 73.9358 73.9358 74.0633 74.0633 74.1884 74.1884 74.3111 74.3111 74.4314 74.4314 74.5492 74.5492 74.6647 74.6647 74.7778 74.7778 74.8884 74.8884 74.9967 74.9967 75.1025 75.1025 75.2059 75.2059 75.3069 75.3069 75.4055 75.4055 75.5017 75.5017 75.5955 75.5955 75.6869 75.6869 75.7758 75.7758 75.8624 75.8624 75.9465 75.9465 76.0283 76.0283 76.1076 76.1076 76.1845 76.1845 76.259 76.259 76.3311 76.3311 76.4008 76.4008 76.4681 76.4681 76.533 76.533 76.5954 76.5954 76.6555 76.6555 76.7131 76.7131 76.7684 76.7684 76.8212 76.8212 76.8716 76.8716 76.9196 76.9196 76.9653 76.9653 77.0085 77.0085 77.0493 77.0493 77.0877 77.0877 77.1237 77.1237 77.1574 77.1574 77.1888 77.1888 77.2178 77.2178 77.2446 77.2446 77.2692 77.2692 77.2916 77.2916 77.312 77.312 77.3302 77.3302 77.3465 77.3465 77.3608 77.3608 77.3732 77.3732 77.3838 77.3838 77.3927 77.3927 77.3999 77.3999 77.4055 77.4055 77.4091 77.4091 77.4103 
SCALARS x_coordinate double 1
LOOKUP_TABLE default
0 0.0490874 0.0490874 0.0981748 0.0981748 0.147262 0.147262 0.19635 0.19635 0.245437 0.245437 0.294524 0.294524 0.343612 0.343612 0.392699 0.392699 0.441786 0.441786 0.490874 0.490874 0.539961 0.539961 0.589049 0.589049 0.638136 0.638136 0.687223 0.687223 0.736311 0.736311 0.785398 0.785398 0.834486 0.834486 0.883573 0.883573 0.93266 0.93266 0.981748 0.981748 1.03084 1.03084 1.07992 1.07992 1.12901 1.12901 1.1781 1.1781 1.22718 1.22718 1.27627 1.27627 1.32536 1.32536 1.37445 1.37445 1.42353 1.42353 1.47262 1.47262 1.52171 1.52171 1.5708 1.5708 1.61988 1.61988 1.66897 1.66897 1.71806 1.71806 1.76715 1.76715 1.81623 1.81623 1.86532 1.86532 1.91441 1.91441 1.9635 1.9635 2.01258 2.01258 2.06167 2.06167 2.11076 2.11076 2.15984 2.15984 2.20893 2.20893 2.25802 2.25802 2.30711 2.30711 2.35619 2.35619 2.40528 2.40528 2.45437 2.45437 2.50346 2.50346 2.55254 2.55254 2.60163 2.60163 2.65072 2.65072 2.69981 2.69981 2.74889 2.74889 2.79798 2.79798 2.84707 2.84707 2.89616 2.89616 2.94524 2.94524 2.99433 2.99433 3.04342 3.04342 3.09251 3.09251 3.14159 3.14159 3.19068 3.19068 3.23977 3.23977 3.28885 3.28885 3.33794 3.33794 3.38703 3.38703 3.43612 3.43612 3.4852 3.4852 3.53429 3.53429 3.58338 3.58338 3.63247 3.63247 3.68155 3.68155 3.73064 3.73064 3.77973 3.77973 3.82882 3.82882 3.8779 3.8779 3.92699 3.92699 3.97608 3.97608 4.02517 4.02517 4.07425 4.07425 4.12334 4.12334 4.17243 4.17243 4.22152 4.22152 4.2706 4.2706 4.31969 4.31969 4.36878 4.36878 4.41786 4.41786 4.46695 4.46695 4.51604 4.51604 4.56513 4.56513 4.61421 4.61421 4.6633 4.6633 4.71239 4.71239 4.76148 4.76148 4.81056 4.81056 4.85965 4.85965 4.90874 4.90874 4.95783 4.95783 5.00691 5.00691 5.056 5.056 5.10509 5.10509 5.15418 5.15418 5.20326 5.20326 5.25235 5.25235 5.30144 5.30144 5.35052 5.35052 5.39961 5.39961 5.4487 5.4487 5.49779 5.49779 5.54687 5.54687 5.59596 5.59596 5.64505 5.64505 5.69414 5.69414 5.74322 5.74322 5.79231 5.79231 5.8414 5.8414 5.89049 5.89049 5.93957 5.93957 5.98866 5.98866 6.03775 6.03775 6.08684 6.08684 6.13592 6.13592 6.18501 6.18501 6.2341 6.2341 6.28319 6.28319 6.33227 6.33227 6.38136 6.38136 6.43045 6.43045 6.47953 6.47953 6.52862 6.52862 6.57771 6.57771 6.6268 6.6268 6.67588 6.67588 6.72497 6.72497 6.77406 6.77406 6.82315 6.82315 6.87223 6.87223 6.92132 6.92132 6.97041 6.97041 7.0195 7.0195 7.06858 7.06858 7.11767 7.11767 7.16676 7.16676 7.21585 7.21585 7.26493 7.26493 7.31402 7.31402 7.36311 7.36311 7.4122 7.4122 7.46128 7.46128 7.51037 7.51037 7.55946 7.55946 7.60854 7.60854 7.65763 7.65763 7.70672 7.70672 7.75581 7.75581 7.80489 7.80489 7.85398 7.85398 7.90307 7.90307 7.95216 7.95216 8.00124 8.00124 8.05033 8.05033 8.09942 8.09942 8.14851 8.14851 8.19759 8.19759 8.24668 8.24668 8.29577 8.29577 8.34486 8.34486 8.39394 8.39394 8.44303 8.44303 8.49212 8.49212 8.54121 8.54121 8.59029 8.59029 8.63938 8.63938 8.68847 8.68847 8.73755 8.73755 8.78664 8.78664 8.83573 8.83573 8.88482 8.88482 8.9339 8.9339 8.98299 8.98299 9.03208 9.03208 9.08117 9.08117 9.13025 9.13025 9.17934 9.17934 9.22843 9.22843 9.27752 9.27752 9.3266 9.3266 9.37569 9.37569 9.42478 9.42478 9.47387 9.47387 9.52295 9.52295 9.57204 9.57204 9.62113 9.62113 9.67021 9.67021 9.7193 9.7193 9.76839 9.76839 9.81748 9.81748 9.86656 9.86656 9.91565 9.91565 9.96474 9.96474 10.0138 10.0138 10.0629 10.0629 10.112 10.112 10.1611 10.1611 10.2102 10.2102 10.2593 10.2593 10.3084 10.3084 10.3574 10.3574 10.4065 10.4065 10.4556 10.4556 10.5047 10.5047 10.5538 10.5538 10.6029 10.6029 10.652 10.652 10.701 10.701 10.7501 10.7501 10.7992 10.7992 10.8483 10.8483 10.8974 10.8974 10.9465 10.9465 10.9956 10.9956 11.0447 11.0447 11.0937 11.0937 11.1428 11.1428 11.1919 11.1919 11.241 11.241 11.2901 11.2901 11.3392 11.3392 11.3883 11.3883 11.4374 11.4374 11.4864 11.4864 11.5355 11.5355 11.5846 11.5846 11.6337 11.6337 11.6828 11.6828 11.7319 11.7319 11.781 11.781 11.8301 11.8301 11.8791 11.8791 11.9282 11.9282 11.9773 11.9773 12.0264 12.0264 12.0755 12.0755 12.1246 12.1246 12.1737 12.1737 12.2228 12.2228 12.2718 12.2718 12.3209 12.3209 12.37 12.37 12.4191 12.4191 12.4682 12.4682 12.5173 12.5173 12.5664 
