# vtk DataFile Version 3.0
#This file was generated by the deal.II library on 2026/3/10 at 19:06:41
ASCII
DATASET UNSTRUCTURED_GRID

POINTS 512 double
0 0 0
0.0490874 0 0
0.0490874 0 0
0.0981748 0 0
0.0981748 0 0
0.147262 0 0
0.147262 0 0
0.19635 0 0
0.19635 0 0
0.245437 0 0
0.245437 0 0
0.294524 0 0
0.294524 0 0
0.343612 0 0
0.343612 0 0
0.392699 0 0
0.392699 0 0
0.441786 0 0
0.441786 0 0
0.490874 0 0
0.490874 0 0
0.539961 0 0
0.539961 0 0
0.589049 0 0
0.589049 0 0
0.638136 0 0
0.638136 0 0
0.687223 0 0
0.687223 0 0
0.736311 0 0
0.736311 0 0
0.785398 0 0
0.785398 0 0
0.834486 0 0
0.834486 0 0
0.883573 0 0
0.883573 0 0
0.93266 0 0
0.93266 0 0
0.981748 0 0
0.981748 0 0
1.03084 0 0
1.03084 0 0
1.07992 0 0
1.07992 0 0
1.12901 0 0
1.12901 0 0
1.1781 0 0
1.1781 0 0
1.22718 0 0
1.22718 0 0
1.27627 0 0
1.27627 0 0
1.32536 0 0
1.32536 0 0
1.37445 0 0
1.37445 0 0
1.42353 0 0
1.42353 0 0
1.47262 0 0
1.47262 0 0
1.52171 0 0
1.52171 0 0
1.5708 0 0
1.5708 0 0
1.61988 0 0
1.61988 0 0
1.66897 0 0
1.66897 0 0
1.71806 0 0
1.71806 0 0
1.76715 0 0
1.76715 0 0
1.81623 0 0
1.81623 0 0
1.86532 0 0
1.86532 0 0
1.91441 0 0
1.91441 0 0
1.9635 0 0
1.9635 0 0
2.01258 0 0
2.01258 0 0
2.06167 0 0
2.06167 0 0
2.11076 0 0
2.11076 0 0
2.15984 0 0
2.15984 0 0
2.20893 0 0
2.20893 0 0
2.25802 0 0
2.25802 0 0
2.30711 0 0
2.30711 0 0
2.35619 0 0
2.35619 0 0
2.40528 0 0
2.40528 0 0
2.45437 0 0
2.45437 0 0
2.50346 0 0
2.50346 0 0
2.55254 0 0
2.55254 0 0
2.60163 0 0
2.60163 0 0
2.65072 0 0
2.65072 0 0
2.69981 0 0
2.69981 0 0
2.74889 0 0
2.74889 0 0
2.79798 0 0
2.79798 0 0
2.84707 0 0
2.84707 0 0
2.89616 0 0
2.89616 0 0
2.94524 0 0
2.94524 0 0
2.99433 0 0
2.99433 0 0
3.04342 0 0
3.04342 0 0
3.09251 0 0
3.09251 0 0
3.14159 0 0
3.14159 0 0
3.19068 0 0
3.19068 0 0
3.23977 0 0
3.23977 0 0
3.28885 0 0
3.28885 0 0
3.33794 0 0
3.33794 0 0
3.38703 0 0
3.38703 0 0
3.43612 0 0
3.43612 0 0
3.4852 0 0
3.4852 0 0
3.53429 0 0
3.53429 0 0
3.58338 0 0
3.58338 0 0
3.63247 0 0
3.63247 0 0
3.68155 0 0
3.68155 0 0
3.73064 0 0
3.73064 0 0
3.77973 0 0
3.77973 0 0
3.82882 0 0
3.82882 0 0
3.8779 0 0
3.8779 0 0
3.92699 0 0
3.92699 0 0
3.97608 0 0
3.97608 0 0
4.02517 0 0
4.02517 0 0
4.07425 0 0
4.07425 0 0
4.12334 0 0
4.12334 0 0
4.17243 0 0
4.17243 0 0
4.22152 0 0
4.22152 0 0
4.2706 0 0
4.2706 0 0
4.31969 0 0
4.31969 0 0
4.36878 0 0
4.36878 0 0
4.41786 0 0
4.41786 0 0
4.46695 0 0
4.46695 0 0
4.51604 0 0
4.51604 0 0
4.56513 0 0
4.56513 0 0
4.61421 0 0
4.61421 0 0
4.6633 0 0
4.6633 0 0
4.71239 0 0
4.71239 0 0
4.76148 0 0
4.76148 0 0
4.81056 0 0
4.81056 0 0
4.85965 0 0
4.85965 0 0
4.90874 0 0
4.90874 0 0
4.95783 0 0
4.95783 0 0
5.00691 0 0
5.00691 0 0
5.056 0 0
5.056 0 0
5.10509 0 0
5.10509 0 0
5.15418 0 0
5.15418 0 0
5.20326 0 0
5.20326 0 0
5.25235 0 0
5.25235 0 0
5.30144 0 0
5.30144 0 0
5.35052 0 0
5.35052 0 0
5.39961 0 0
5.39961 0 0
5.4487 0 0
5.4487 0 0
5.49779 0 0
5.49779 0 0
5.54687 0 0
5.54687 0 0
5.59596 0 0
5.59596 0 0
5.64505 0 0
5.64505 0 0
5.69414 0 0
5.69414 0 0
5.74322 0 0
5.74322 0 0
5.79231 0 0
5.79231 0 0
5.8414 0 0
5.8414 0 0
5.89049 0 0
5.89049 0 0
5.93957 0 0
5.93957 0 0
5.98866 0 0
5.98866 0 0
6.03775 0 0
6.03775 0 0
6.08684 0 0
6.08684 0 0
6.13592 0 0
6.13592 0 0
6.18501 0 0
6.18501 0 0
6.2341 0 0
6.2341 0 0
6.28319 0 0
6.28319 0 0
6.33227 0 0
6.33227 0 0
6.38136 0 0
6.38136 0 0
6.43045 0 0
6.43045 0 0
6.47953 0 0
6.47953 0 0
6.52862 0 0
6.52862 0 0
6.57771 0 0
6.57771 0 0
6.6268 0 0
6.6268 0 0
6.67588 0 0
6.67588 0 0
6.72497 0 0
6.72497 0 0
6.77406 0 0
6.77406 0 0
6.82315 0 0
6.82315 0 0
6.87223 0 0
6.87223 0 0
6.92132 0 0
6.92132 0 0
6.97041 0 0
6.97041 0 0
7.0195 0 0
7.0195 0 0
7.06858 0 0
7.06858 0 0
7.11767 0 0
7.11767 0 0
7.16676 0 0
7.16676 0 0
7.21585 0 0
7.21585 0 0
7.26493 0 0
7.26493 0 0
7.31402 0 0
7.31402 0 0
7.36311 0 0
7.36311 0 0
7.4122 0 0
7.4122 0 0
7.46128 0 0
7.46128 0 0
7.51037 0 0
7.51037 0 0
7.55946 0 0
7.55946 0 0
7.60854 0 0
7.60854 0 0
7.65763 0 0
7.65763 0 0
7.70672 0 0
7.70672 0 0
7.75581 0 0
7.75581 0 0
7.80489 0 0
7.80489 0 0
7.85398 0 0
7.85398 0 0
7.90307 0 0
7.90307 0 0
7.95216 0 0
7.95216 0 0
8.00124 0 0
8.00124 0 0
8.05033 0 0
8.05033 0 0
8.09942 0 0
8.09942 0 0
8.14851 0 0
8.14851 0 0
8.19759 0 0
8.19759 0 0
8.24668 0 0
8.24668 0 0
8.29577 0 0
8.29577 0 0
8.34486 0 0
8.34486 0 0
8.39394 0 0
8.39394 0 0
8.44303 0 0
8.44303 0 0
8.49212 0 0
8.49212 0 0
8.54121 0 0
8.54121 0 0
8.59029 0 0
8.59029 0 0
8.63938 0 0
8.63938 0 0
8.68847 0 0
8.68847 0 0
8.73755 0 0
8.73755 0 0
8.78664 0 0
8.78664 0 0
8.83573 0 0
8.83573 0 0
8.88482 0 0
8.88482 0 0
8.9339 0 0
8.9339 0 0
8.98299 0 0
8.98299 0 0
9.03208 0 0
9.03208 0 0
9.08117 0 0
9.08117 0 0
9.13025 0 0
9.13025 0 0
9.17934 0 0
9.17934 0 0
9.22843 0 0
9.22843 0 0
9.27752 0 0
9.27752 0 0
9.3266 0 0
9.3266 0 0
9.37569 0 0
9.37569 0 0
9.42478 0 0
9.42478 0 0
9.47387 0 0
9.47387 0 0
9.52295 0 0
9.52295 0 0
9.57204 0 0
9.57204 0 0
9.62113 0 0
9.62113 0 0
9.67021 0 0
9.67021 0 0
9.7193 0 0
9.7193 0 0
9.76839 0 0
9.76839 0 0
9.81748 0 0
9.81748 0 0
9.86656 0 0
9.86656 0 0
9.91565 0 0
9.91565 0 0
9.96474 0 0
9.96474 0 0
10.0138 0 0
10.0138 0 0
10.0629 0 0
10.0629 0 0
10.112 0 0
10.112 0 0
10.1611 0 0
10.1611 0 0
10.2102 0 0
10.2102 0 0
10.2593 0 0
10.2593 0 0
10.3084 0 0
10.3084 0 0
10.3574 0 0
10.3574 0 0
10.4065 0 0
10.4065 0 0
10.4556 0 0
10.4556 0 0
10.5047 0 0
10.5047 0 0
10.5538 0 0
10.5538 0 0
10.6029 0 0
10.6029 0 0
10.652 0 0
10.652 0 0
10.701 0 0
10.701 0 0
10.7501 0 0
10.7501 0 0
10.7992 0 0
10.7992 0 0
10.8483 0 0
10.8483 0 0
10.8974 0 0
10.8974 0 0
10.9465 0 0
10.9465 0 0
10.9956 0 0
10.9956 0 0
11.0447 0 0
11.0447 0 0
11.0937 0 0
11.0937 0 0
11.1428 0 0
11.1428 0 0
11.1919 0 0
11.1919 0 0
11.241 0 0
11.241 0 0
11.2901 0 0
11.2901 0 0
11.3392 0 0
11.3392 0 0
11.3883 0 0
11.3883 0 0
11.4374 0 0
11.4374 0 0
11.4864 0 0
11.4864 0 0
11.5355 0 0
11.5355 0 0
11.5846 0 0
11.5846 0 0
11.6337 0 0
11.6337 0 0
11.6828 0 0
11.6828 0 0
11.7319 0 0
11.7319 0 0
11.781 0 0
11.781 0 0
11.8301 0 0
11.8301 0 0
11.8791 0 0
11.8791 0 0
11.9282 0 0
11.9282 0 0
11.9773 0 0
11.9773 0 0
12.0264 0 0
12.0264 0 0
12.0755 0 0
12.0755 0 0
12.1246 0 0
12.1246 0 0
12.1737 0 0
12.1737 0 0
12.2228 0 0
12.2228 0 0
12.2718 0 0
12.2718 0 0
12.3209 0 0
12.3209 0 0
12.37 0 0
12.37 0 0
12.4191 0 0
12.4191 0 0
12.4682 0 0
12.4682 0 0
12.5173 0 0
12.5173 0 0
12.5664 0 0

CELLS 256 768
2	0	1
2	2	3
2	4	5
2	6	7
2	8	9
2	10	11
2	12	13
2	14	15
2	16	17
2	18	19
2	20	21
2	22	23
2	24	25
2	26	27
2	28	29
2	30	31
2	32	33
2	34	35
2	36	37
2	38	39
2	40	41
2	42	43
2	44	45
2	46	47
2	48	49
2	50	51
2	52	53
2	54	55
2	56	57
2	58	59
2	60	61
2	62	63
2	64	65
2	66	67
2	68	69
2	70	71
2	72	73
2	74	75
2	76	77
2	78	79
2	80	81
2	82	83
2	84	85
2	86	87
2	88	89
2	90	91
2	92	93
2	94	95
2	96	97
2	98	99
2	100	101
2	102	103
2	104	105
2	106	107
2	108	109
2	110	111
2	112	113
2	114	115
2	116	117
2	118	119
2	120	121
2	122	123
2	124	125
2	126	127
2	128	129
2	130	131
2	132	133
2	134	135
2	136	137
2	138	139
2	140	141
2	142	143
2	144	145
2	146	147
2	148	149
2	150	151
2	152	153
2	154	155
2	156	157
2	158	159
2	160	161
2	162	163
2	164	165
2	166	167
2	168	169
2	170	171
2	172	173
2	174	175
2	176	177
2	178	179
2	180	181
2	182	183
2	184	185
2	186	187
2	188	189
2	190	191
2	192	193
2	194	195
2	196	197
2	198	199
2	200	201
2	202	203
2	204	205
2	206	207
2	208	209
2	210	211
2	212	213
2	214	215
2	216	217
2	218	219
2	220	221
2	222	223
2	224	225
2	226	227
2	228	229
2	230	231
2	232	233
2	234	235
2	236	237
2	238	239
2	240	241
2	242	243
2	244	245
2	246	247
2	248	249
2	250	251
2	252	253
2	254	255
2	256	257
2	258	259
2	260	261
2	262	263
2	264	265
2	266	267
2	268	269
2	270	271
2	272	273
2	274	275
2	276	277
2	278	279
2	280	281
2	282	283
2	284	285
2	286	287
2	288	289
2	290	291
2	292	293
2	294	295
2	296	297
2	298	299
2	300	301
2	302	303
2	304	305
2	306	307
2	308	309
2	310	311
2	312	313
2	314	315
2	316	317
2	318	319
2	320	321
2	322	323
2	324	325
2	326	327
2	328	329
2	330	331
2	332	333
2	334	335
2	336	337
2	338	339
2	340	341
2	342	343
2	344	345
2	346	347
2	348	349
2	350	351
2	352	353
2	354	355
2	356	357
2	358	359
2	360	361
2	362	363
2	364	365
2	366	367
2	368	369
2	370	371
2	372	373
2	374	375
2	376	377
2	378	379
2	380	381
2	382	383
2	384	385
2	386	387
2	388	389
2	390	391
2	392	393
2	394	395
2	396	397
2	398	399
2	400	401
2	402	403
2	404	405
2	406	407
2	408	409
2	410	411
2	412	413
2	414	415
2	416	417
2	418	419
2	420	421
2	422	423
2	424	425
2	426	427
2	428	429
2	430	431
2	432	433
2	434	435
2	436	437
2	438	439
2	440	441
2	442	443
2	444	445
2	446	447
2	448	449
2	450	451
2	452	453
2	454	455
2	456	457
2	458	459
2	460	461
2	462	463
2	464	465
2	466	467
2	468	469
2	470	471
2	472	473
2	474	475
2	476	477
2	478	479
2	480	481
2	482	483
2	484	485
2	486	487
2	488	489
2	490	491
2	492	493
2	494	495
2	496	497
2	498	499
2	500	501
2	502	503
2	504	505
2	506	507
2	508	509
2	510	511

CELL_TYPES 256
 3 3 3 3 3 3 3 3 3 3 3 3 3 3 3 3 3 3 3 3 3 3 3 3 3 3 3 3 3 3 3 3 3 3 3 3 3 3 3 3 3 3 3 3 3 3 3 3 3 3 3 3 3 3 3 3 3 3 3 3 3 3 3 3 3 3 3 3 3 3 3 3 3 3 3 3 3 3 3 3 3 3 3 3 3 3 3 3 3 3 3 3 3 3 3 3 3 3 3 3 3 3 3 3 3 3 3 3 3 3 3 3 3 3 3 3 3 3 3 3 3 3 3 3 3 3 3 3 3 3 3 3 3 3 3 3 3 3 3 3 3 3 3 3 3 3 3 3 3 3 3 3 3 3 3 3 3 3 3 3 3 3 3 3 3 3 3 3 3 3 3 3 3 3 3 3 3 3 3 3 3 3 3 3 3 3 3 3 3 3 3 3 3 3 3 3 3 3 3 3 3 3 3 3 3 3 3 3 3 3 3 3 3 3 3 3 3 3 3 3 3 3 3 3 3 3 3 3 3 3 3 3 3 3 3 3 3 3 3 3 3 3 3 3 3 3 3 3 3 3 3 3 3 3 3 3
POINT_DATA 512
VECTORS electric_field double
-12.0871 0 0
-12.038 0 0
-12.038 0 0
-11.9889 0 0
-11.9889 0 0
-11.9398 0 0
-11.9398 0 0
-11.8907 0 0
-11.8907 0 0
-11.8416 0 0
-11.8416 0 0
-11.7925 0 0
-11.7925 0 0
-11.7434 0 0
-11.7434 0 0
-11.6944 0 0
-11.6944 0 0
-11.6453 0 0
-11.6453 0 0
-11.5962 0 0
-11.5962 0 0
-11.5471 0 0
-11.5471 0 0
-11.498 0 0
-11.498 0 0
-11.4489 0 0
-11.4489 0 0
-11.3998 0 0
-11.3998 0 0
-11.3507 0 0
-11.3507 0 0
-11.3017 0 0
-11.3017 0 0
-11.2526 0 0
-11.2526 0 0
-11.2035 0 0
-11.2035 0 0
-11.1544 0 0
-11.1544 0 0
-11.1053 0 0
-11.1053 0 0
-11.0562 0 0
-11.0562 0 0
-11.0071 0 0
-11.0071 0 0
-10.958 0 0
-10.958 0 0
-10.909 0 0
-10.909 0 0
-10.8599 0 0
-10.8599 0 0
-10.8108 0 0
-10.8108 0 0
-10.7617 0 0
-10.7617 0 0
-10.7126 0 0
-10.7126 0 0
-10.6635 0 0
-10.6635 0 0
-10.6144 0 0
-10.6144 0 0
-10.5653 0 0
-10.5653 0 0
-10.5163 0 0
-10.5163 0 0
-10.4672 0 0
-10.4672 0 0
-10.4181 0 0
-10.4181 0 0
-10.369 0 0
-10.369 0 0
-10.3199 0 0
-10.3199 0 0
-10.2708 0 0
-10.2708 0 0
-10.2217 0 0
-10.2217 0 0
-10.1726 0 0
-10.1726 0 0
-10.1236 0 0
-10.1236 0 0
-10.0745 0 0
-10.0745 0 0
-10.0254 0 0
-10.0254 0 0
-9.9763 0 0
-9.9763 0 0
-9.92721 0 0
-9.92721 0 0
-9.87812 0 0
-9.87812 0 0
-9.82903 0 0
-9.82903 0 0
-9.77995 0 0
-9.77995 0 0
-9.73086 0 0
-9.73086 0 0
-9.68177 0 0
-9.68177 0 0
-9.63268 0 0
-9.63268 0 0
-9.5836 0 0
-9.5836 0 0
-9.53451 0 0
-9.53451 0 0
-9.48542 0 0
-9.48542 0 0
-9.43633 0 0
-9.43633 0 0
-9.38725 0 0
-9.38725 0 0
-9.33816 0 0
-9.33816 0 0
-9.28907 0 0
-9.28907 0 0
-9.23998 0 0
-9.23998 0 0
-9.1909 0 0
-9.1909 0 0
-9.14181 0 0
-9.14181 0 0
-9.09272 0 0
-9.09272 0 0
-9.04363 0 0
-9.04363 0 0
-8.99455 0 0
-8.99455 0 0
-8.94546 0 0
-8.94546 0 0
-8.89637 0 0
-8.89637 0 0
-8.84729 0 0
-8.84729 0 0
-8.7982 0 0
-8.7982 0 0
-8.74911 0 0
-8.74911 0 0
-8.70002 0 0
-8.70002 0 0
-8.65094 0 0
-8.65094 0 0
-8.60185 0 0
-8.60185 0 0
-8.55276 0 0
-8.55276 0 0
-8.50367 0 0
-8.50367 0 0
-8.45459 0 0
-8.45459 0 0
-8.4055 0 0
-8.4055 0 0
-8.35641 0 0
-8.35641 0 0
-8.30732 0 0
-8.30732 0 0
-8.25824 0 0
-8.25824 0 0
-8.20915 0 0
-8.20915 0 0
-8.16006 0 0
-8.16006 0 0
-8.11097 0 0
-8.11097 0 0
-8.06189 0 0
-8.06189 0 0
-8.0128 0 0
-8.0128 0 0
-7.96371 0 0
-7.96371 0 0
-7.91462 0 0
-7.91462 0 0
-7.86554 0 0
-7.86554 0 0
-7.81645 0 0
-7.81645 0 0
-7.76736 0 0
-7.76736 0 0
-7.71828 0 0
-7.71828 0 0
-7.66919 0 0
-7.66919 0 0
-7.6201 0 0
-7.6201 0 0
-7.57101 0 0
-7.57101 0 0
-7.52193 0 0
-7.52193 0 0
-7.47284 0 0
-7.47284 0 0
-7.42375 0 0
-7.42375 0 0
-7.37466 0 0
-7.37466 0 0
-7.32558 0 0
-7.32558 0 0
-7.27649 0 0
-7.27649 0 0
-7.2274 0 0
-7.2274 0 0
-7.17831 0 0
-7.17831 0 0
-7.12923 0 0
-7.12923 0 0
-7.08014 0 0
-7.08014 0 0
-7.03105 0 0
-7.03105 0 0
-6.98196 0 0
-6.98196 0 0
-6.93288 0 0
-6.93288 0 0
-6.88379 0 0
-6.88379 0 0
-6.8347 0 0
-6.8347 0 0
-6.78561 0 0
-6.78561 0 0
-6.73653 0 0
-6.73653 0 0
-6.68744 0 0
-6.68744 0 0
-6.63835 0 0
-6.63835 0 0
-6.58927 0 0
-6.58927 0 0
-6.54018 0 0
-6.54018 0 0
-6.49109 0 0
-6.49109 0 0
-6.442 0 0
-6.442 0 0
-6.39292 0 0
-6.39292 0 0
-6.34383 0 0
-6.34383 0 0
-6.29474 0 0
-6.29474 0 0
-6.24565 0 0
-6.24565 0 0
-6.19657 0 0
-6.19657 0 0
-6.14748 0 0
-6.14748 0 0
-6.09839 0 0
-6.09839 0 0
-6.0493 0 0
-6.0493 0 0
-6.00022 0 0
-6.00022 0 0
-5.95113 0 0
-5.95113 0 0
-5.90204 0 0
-5.90204 0 0
-5.85295 0 0
-5.85295 0 0
-5.80387 0 0
-5.80387 0 0
-5.75478 0 0
-5.75478 0 0
-5.70569 0 0
-5.70569 0 0
-5.65661 0 0
-5.65661 0 0
-5.60752 0 0
-5.60752 0 0
-5.55843 0 0
-5.55843 0 0
-5.50934 0 0
-5.50934 0 0
-5.46026 0 0
-5.46026 0 0
-5.41117 0 0
-5.41117 0 0
-5.36208 0 0
-5.36208 0 0
-5.31299 0 0
-5.31299 0 0
-5.26391 0 0
-5.26391 0 0
-5.21482 0 0
-5.21482 0 0
-5.16573 0 0
-5.16573 0 0
-5.11664 0 0
-5.11664 0 0
-5.06756 0 0
-5.06756 0 0
-5.01847 0 0
-5.01847 0 0
-4.96938 0 0
-4.96938 0 0
-4.92029 0 0
-4.92029 0 0
-4.87121 0 0
-4.87121 0 0
-4.82212 0 0
-4.82212 0 0
-4.77303 0 0
-4.77303 0 0
-4.72394 0 0
-4.72394 0 0
-4.67486 0 0
-4.67486 0 0
-4.62577 0 0
-4.62577 0 0
-4.57668 0 0
-4.57668 0 0
-4.5276 0 0
-4.5276 0 0
-4.47851 0 0
-4.47851 0 0
-4.42942 0 0
-4.42942 0 0
-4.38033 0 0
-4.38033 0 0
-4.33125 0 0
-4.33125 0 0
-4.28216 0 0
-4.28216 0 0
-4.23307 0 0
-4.23307 0 0
-4.18398 0 0
-4.18398 0 0
-4.1349 0 0
-4.1349 0 0
-4.08581 0 0
-4.08581 0 0
-4.03672 0 0
-4.03672 0 0
-3.98763 0 0
-3.98763 0 0
-3.93855 0 0
-3.93855 0 0
-3.88946 0 0
-3.88946 0 0
-3.84037 0 0
-3.84037 0 0
-3.79128 0 0
-3.79128 0 0
-3.7422 0 0
-3.7422 0 0
-3.69311 0 0
-3.69311 0 0
-3.64402 0 0
-3.64402 0 0
-3.59493 0 0
-3.59493 0 0
-3.54585 0 0
-3.54585 0 0
-3.49676 0 0
-3.49676 0 0
-3.44767 0 0
-3.44767 0 0
-3.39859 0 0
-3.39859 0 0
-3.3495 0 0
-3.3495 0 0
-3.30041 0 0
-3.30041 0 0
-3.25132 0 0
-3.25132 0 0
-3.20224 0 0
-3.20224 0 0
-3.15315 0 0
-3.15315 0 0
-3.10406 0 0
-3.10406 0 0
-3.05497 0 0
-3.05497 0 0
-3.00589 0 0
-3.00589 0 0
-2.9568 0 0
-2.9568 0 0
-2.90771 0 0
-2.90771 0 0
-2.85862 0 0
-2.85862 0 0
-2.80954 0 0
-2.80954 0 0
-2.76045 0 0
-2.76045 0 0
-2.71136 0 0
-2.71136 0 0
-2.66227 0 0
-2.66227 0 0
-2.61319 0 0
-2.61319 0 0
-2.5641 0 0
-2.5641 0 0
-2.51501 0 0
-2.51501 0 0
-2.46593 0 0
-2.46593 0 0
-2.41684 0 0
-2.41684 0 0
-2.36782 0 0
-2.3678 0 0
-2.31871 0 0
-2.31871 0 0
-2.26962 0 0
-2.26962 0 0
-2.22054 0 0
-2.22055 0 0
-2.1715 0 0
-2.17151 0 0
-2.12245 0 0
-2.12244 0 0
-2.07336 0 0
-2.07336 0 0
-2.02427 0 0
-2.02427 0 0
-1.97518 0 0
-1.97518 0 0
-1.92609 0 0
-1.92609 0 0
-1.87701 0 0
-1.87701 0 0
-1.82792 0 0
-1.82792 0 0
-1.77883 0 0
-1.77884 0 0
-1.72989 0 0
-1.72985 0 0
-1.68076 0 0
-1.68076 0 0
-1.63168 0 0
-1.63168 0 0
-1.58259 0 0
-1.58259 0 0
-1.5335 0 0
-1.5335 0 0
-1.48441 0 0
-1.48443 0 0
-1.43537 0 0
-1.43537 0 0
-1.38628 0 0
-1.38628 0 0
-1.33719 0 0
-1.33719 0 0
-1.2881 0 0
-1.2881 0 0
-1.23902 0 0
-1.23902 0 0
-1.18999 0 0
-1.19 0 0
-1.14103 0 0
-1.14104 0 0
-1.09204 0 0
-1.09204 0 0
-1.04301 0 0
-1.04302 0 0
-0.993999 0 0
-0.993993 0 0
-0.94518 0 0
-0.945167 0 0
-0.89696 0 0
-0.896966 0 0
-0.849234 0 0
-0.849306 0 0
-0.802871 0 0
-0.803008 0 0
-0.758586 0 0
-0.758481 0 0
-0.714861 0 0
-0.714966 0 0
-0.672739 0 0
-0.672733 0 0
-0.631623 0 0
-0.631558 0 0
-0.592866 0 0
-0.592929 0 0
-0.556382 0 0
-0.556338 0 0
-0.52222 0 0
-0.522272 0 0
-0.489687 0 0
-0.489709 0 0
-0.458911 0 0
-0.458893 0 0
-0.429377 0 0
-0.429261 0 0
-0.401382 0 0
-0.401254 0 0
-0.374995 0 0
-0.374964 0 0
-0.349186 0 0
-0.349152 0 0
-0.324144 0 0
-0.324214 0 0
-0.30023 0 0
-0.300214 0 0
-0.27654 0 0
-0.276609 0 0
-0.253436 0 0
-0.253408 0 0
-0.230991 0 0
-0.231032 0 0
-0.208187 0 0
-0.208258 0 0
-0.185927 0 0
-0.185933 0 0
-0.16399 0 0
-0.163967 0 0
-0.142045 0 0
-0.142014 0 0
-0.120288 0 0
-0.120168 0 0
-0.0981071 0 0
-0.0981748 0 0
-0.0490874 0 0
-0.0490874 0 0
-3.63798e-12 0 0
SCALARS potential double 1
LOOKUP_TABLE default
0 0.592117 0.592117 1.18182 1.18182 1.76912 1.76912 2.35401 2.35401 2.93649 2.93649 3.51656 3.51656 4.09422 4.09422 4.66947 4.66947 5.24231 5.24231 5.81274 5.81274 6.38076 6.38076 6.94637 6.94637 7.50957 7.50957 8.07037 8.07037 8.62875 8.62875 9.18472 9.18472 9.73829 9.73829 10.2894 10.2894 10.8382 10.8382 11.3845 11.3845 11.9284 11.9284 12.47 12.47 13.0091 13.0091 13.5458 13.5458 14.0801 14.0801 14.6119 14.6119 15.1414 15.1414 15.6685 15.6685 16.1931 16.1931 16.7153 16.7153 17.2352 17.2352 17.7526 17.7526 18.2676 18.2676 18.7802 18.7802 19.2904 19.2904 19.7982 19.7982 20.3036 20.3036 20.8065 20.8065 21.3071 21.3071 21.8052 21.8052 22.3009 22.3009 22.7943 22.7943 23.2852 23.2852 23.7737 23.7737 24.2598 24.2598 24.7435 24.7435 25.2248 25.2248 25.7036 25.7036 26.1801 26.1801 26.6541 26.6541 27.1258 27.1258 27.595 27.595 28.0618 28.0618 28.5262 28.5262 28.9882 28.9882 29.4478 29.4478 29.905 29.905 30.3598 30.3598 30.8121 30.8121 31.2621 31.2621 31.7096 31.7096 32.1548 32.1548 32.5975 32.5975 33.0378 33.0378 33.4757 33.4757 33.9112 33.9112 34.3443 34.3443 34.775 34.775 35.2032 35.2032 35.6291 35.6291 36.0525 36.0525 36.4736 36.4736 36.8922 36.8922 37.3084 37.3084 37.7222 37.7222 38.1336 38.1336 38.5426 38.5426 38.9492 38.9492 39.3534 39.3534 39.7551 39.7551 40.1545 40.1545 40.5514 40.5514 40.9459 40.9459 41.3381 41.3381 41.7278 41.7278 42.1151 42.1151 42.5 42.5 42.8825 42.8825 43.2625 43.2625 43.6402 43.6402 44.0155 44.0155 44.3883 44.3883 44.7587 44.7587 45.1268 45.1268 45.4924 45.4924 45.8556 45.8556 46.2164 46.2164 46.5748 46.5748 46.9308 46.9308 47.2843 47.2843 47.6355 47.6355 47.9842 47.9842 48.3306 48.3306 48.6745 48.6745 49.016 49.016 49.3551 49.3551 49.6918 49.6918 50.0261 50.0261 50.358 50.358 50.6875 50.6875 51.0146 51.0146 51.3392 51.3392 51.6615 51.6615 51.9813 51.9813 52.2987 52.2987 52.6137 52.6137 52.9263 52.9263 53.2365 53.2365 53.5443 53.5443 53.8497 53.8497 54.1527 54.1527 54.4532 54.4532 54.7514 54.7514 55.0471 55.0471 55.3405 55.3405 55.6314 55.6314 55.9199 55.9199 56.206 56.206 56.4897 56.4897 56.771 56.771 57.0498 57.0498 57.3263 57.3263 57.6003 57.6003 57.872 57.872 58.1412 58.1412 58.4081 58.4081 58.6725 58.6725 58.9345 58.9345 59.1941 59.1941 59.4513 59.4513 59.706 59.706 59.9584 59.9584 60.2084 60.2084 60.4559 60.4559 60.701 60.701 60.9438 60.9438 61.1841 61.1841 61.422 61.422 61.6575 61.6575 61.8906 61.8906 62.1213 62.1213 62.3495 62.3495 62.5754 62.5754 62.7989 62.7989 63.0199 63.0199 63.2385 63.2385 63.4548 63.4548 63.6686 63.6686 63.88 63.88 64.089 64.089 64.2956 64.2956 64.4997 64.4997 64.7015 64.7015 64.9009 64.9009 65.0978 65.0978 65.2923 65.2923 65.4845 65.4845 65.6742 65.6742 65.8615 65.8615 66.0464 66.0464 66.2289 66.2289 66.409 66.409 66.5866 66.5866 66.7619 66.7619 66.9348 66.9348 67.1052 67.1052 67.2732 67.2732 67.4389 67.4389 67.6021 67.6021 67.7629 67.7629 67.9213 67.9213 68.0772 68.0772 68.2308 68.2308 68.382 68.382 68.5307 68.5307 68.6771 68.6771 68.821 68.821 68.9626 68.9626 69.1017 69.1017 69.2384 69.2384 69.3727 69.3727 69.5046 69.5046 69.634 69.634 69.7611 69.7611 69.8858 69.8858 70.008 70.008 70.1279 70.1279 70.2453 70.2453 70.3603 70.3603 70.4729 70.4729 70.5831 70.5831 70.6909 70.6909 70.7963 70.7963 70.8993 70.8993 70.9999 70.9999 71.098 71.098 71.1938 71.1938 71.2871 71.2871 71.3781 71.3781 71.4666 71.4666 71.5527 71.5527 71.6364 71.6364 71.7177 71.7177 71.7966 71.7966 71.8731 71.8731 71.9472 71.9472 72.0188 72.0188 72.0881 72.0881 72.1549 72.1549 72.2194 72.2194 72.2814 72.2814 72.341 72.341 72.3982 72.3982 72.453 72.453 72.5054 72.5054 72.5554 72.5554 72.603 72.603 72.6482 72.6482 72.6911 72.6911 72.7316 72.7316 72.7699 72.7699 72.8061 72.8061 72.8401 72.8401 72.8721 72.8721 72.9022 72.9022 72.9304 72.9304 72.9569 72.9569 72.9817 72.9817 73.005 73.005 73.0267 73.0267 73.0471 73.0471 73.0662 73.0662 73.0839 73.0839 73.1005 73.1005 73.1158 73.1158 73.1299 73.1299 73.1429 73.1429 73.1548 73.1548 73.1656 73.1656 73.1753 73.1753 73.1839 73.1839 73.1914 73.1914 73.1978 73.1978 73.2032 73.2032 73.2068 73.2068 73.208 
SCALARS x_coordinate double 1
LOOKUP_TABLE default
0 0.0490874 0.0490874 0.0981748 0.0981748 0.147262 0.147262 0.19635 0.19635 0.245437 0.245437 0.294524 0.294524 0.343612 0.343612 0.392699 0.392699 0.441786 0.441786 0.490874 0.490874 0.539961 0.539961 0.589049 0.589049 0.638136 0.638136 0.687223 0.687223 0.736311 0.736311 0.785398 0.785398 0.834486 0.834486 0.883573 0.883573 0.93266 0.93266 0.981748 0.981748 1.03084 1.03084 1.07992 1.07992 1.12901 1.12901 1.1781 1.1781 1.22718 1.22718 1.27627 1.27627 1.32536 1.32536 1.37445 1.37445 1.42353 1.42353 1.47262 1.47262 1.52171 1.52171 1.5708 1.5708 1.61988 1.61988 1.66897 1.66897 1.71806 1.71806 1.76715 1.76715 1.81623 1.81623 1.86532 1.86532 1.91441 1.91441 1.9635 1.9635 2.01258 2.01258 2.06167 2.06167 2.11076 2.11076 2.15984 2.15984 2.20893 2.20893 2.25802 2.25802 2.30711 2.30711 2.35619 2.35619 2.40528 2.40528 2.45437 2.45437 2.50346 2.50346 2.55254 2.55254 2.60163 2.60163 2.65072 2.65072 2.69981 2.69981 2.74889 2.74889 2.79798 2.79798 2.84707 2.84707 2.89616 2.89616 2.94524 2.94524 2.99433 2.99433 3.04342 3.04342 3.09251 3.09251 3.14159 3.14159 3.19068 3.19068 3.23977 3.23977 3.28885 3.28885 3.33794 3.33794 3.38703 3.38703 3.43612 3.43612 3.4852 3.4852 3.53429 3.53429 3.58338 3.58338 3.63247 3.63247 3.68155 3.68155 3.73064 3.73064 3.77973 3.77973 3.82882 3.82882 3.8779 3.8779 3.92699 3.92699 3.97608 3.97608 4.02517 4.02517 4.07425 4.07425 4.12334 4.12334 4.17243 4.17243 4.22152 4.22152 4.2706 4.2706 4.31969 4.31969 4.36878 4.36878 4.41786 4.41786 4.46695 4.46695 4.51604 4.51604 4.56513 4.56513 4.61421 4.61421 4.6633 4.6633 4.71239 4.71239 4.76148 4.76148 4.81056 4.81056 4.85965 4.85965 4.90874 4.90874 4.95783 4.95783 5.00691 5.00691 5.056 5.056 5.10509 5.10509 5.15418 5.15418 5.20326 5.20326 5.25235 5.25235 5.30144 5.30144 5.35052 5.35052 5.39961 5.39961 5.4487 5.4487 5.49779 5.49779 5.54687 5.54687 5.59596 5.59596 5.64505 5.64505 5.69414 5.69414 5.74322 5.74322 5.79231 5.79231 5.8414 5.8414 5.89049 5.89049 5.93957 5.93957 5.98866 5.98866 6.03775 6.03775 6.08684 6.08684 6.13592 6.13592 6.18501 6.18501 6.2341 6.2341 6.28319 6.28319 6.33227 6.33227 6.38136 6.38136 6.43045 6.43045 6.47953 6.47953 6.52862 6.52862 6.57771 6.57771 6.6268 6.6268 6.67588 6.67588 6.72497 6.72497 6.77406 6.77406 6.82315 6.82315 6.87223 6.87223 6.92132 6.92132 6.97041 6.97041 7.0195 7.0195 7.06858 7.06858 7.11767 7.11767 7.16676 7.16676 7.21585 7.21585 7.26493 7.26493 7.31402 7.31402 7.36311 7.36311 7.4122 7.4122 7.46128 7.46128 7.51037 7.51037 7.55946 7.55946 7.60854 7.60854 7.65763 7.65763 7.70672 7.70672 7.75581 7.75581 7.80489 7.80489 7.85398 7.85398 7.90307 7.90307 7.95216 7.95216 8.00124 8.00124 8.05033 8.05033 8.09942 8.09942 8.14851 8.14851 8.19759 8.19759 8.24668 8.24668 8.29577 8.29577 8.34486 8.34486 8.39394 8.39394 8.44303 8.44303 8.49212 8.49212 8.54121 8.54121 8.59029 8.59029 8.63938 8.63938 8.68847 8.68847 8.73755 8.73755 8.78664 8.78664 8.83573 8.83573 8.88482 8.88482 8.9339 8.9339 8.98299 8.98299 9.03208 9.03208 9.08117 9.08117 9.13025 9.13025 9.17934 9.17934 9.22843 9.22843 9.27752 9.27752 9.3266 9.3266 9.37569 9.37569 9.42478 9.42478 9.47387 9.47387 9.52295 9.52295 9.57204 9.57204 9.62113 9.62113 9.67021 9.67021 9.7193 9.7193 9.76839 9.76839 9.81748 9.81748 9.86656 9.86656 9.91565 9.91565 9.96474 9.96474 10.0138 10.0138 10.0629 10.0629 10.112 10.112 10.1611 10.1611 10.2102 10.2102 10.2593 10.2593 10.3084 10.3084 10.3574 10.3574 10.4065 10.4065 10.4556 10.4556 10.5047 10.5047 10.5538 10.5538 10.6029 10.6029 10.652 10.652 10.701 10.701 10.7501 10.7501 10.7992 10.7992 10.8483 10.8483 10.8974 10.8974 10.9465 10.9465 10.9956 10.9956 11.0447 11.0447 11.0937 11.0937 11.1428 11.1428 11.1919 11.1919 11.241 11.241 11.2901 11.2901 11.3392 11.3392 11.3883 11.3883 11.4374 11.4374 11.4864 11.4864 11.5355 11.5355 11.5846 11.5846 11.6337 11.6337 11.6828 11.6828 11.7319 11.7319 11.781 11.781 11.8301 11.8301 11.8791 11.8791 11.9282 11.9282 11.9773 11.9773 12.0264 12.0264 12.0755 12.0755 12.1246 12.1246 12.1737 12.1737 12.2228 12.2228 12.2718 12.2718 12.3209 12.3209 12.37 12.37 12.4191 12.4191 12.4682 12.4682 12.5173 12.5173 12.5664 
