# vtk DataFile Version 3.0
#This file was generated by the deal.II library on 2026/3/10 at 19:07:30
ASCII
DATASET UNSTRUCTURED_GRID

POINTS 512 double
0 0 0
0.0490874 0 0
0.0490874 0 0
0.0981748 0 0
0.0981748 0 0
0.147262 0 0
0.147262 0 0
0.19635 0 0
0.19635 0 0
0.245437 0 0
0.245437 0 0
0.294524 0 0
0.294524 0 0
0.343612 0 0
0.343612 0 0
0.392699 0 0
0.392699 0 0
0.441786 0 0
0.441786 0 0
0.490874 0 0
0.490874 0 0
0.539961 0 0
0.539961 0 0
0.589049 0 0
0.589049 0 0
0.638136 0 0
0.638136 0 0
0.687223 0 0
0.687223 0 0
0.736311 0 0
0.736311 0 0
0.785398 0 0
0.785398 0 0
0.834486 0 0
0.834486 0 0
0.883573 0 0
0.883573 0 0
0.93266 0 0
0.93266 0 0
0.981748 0 0
0.981748 0 0
1.03084 0 0
1.03084 0 0
1.07992 0 0
1.07992 0 0
1.12901 0 0
1.12901 0 0
1.1781 0 0
1.1781 0 0
1.22718 0 0
1.22718 0 0
1.27627 0 0
1.27627 0 0
1.32536 0 0
1.32536 0 0
1.37445 0 0
1.37445 0 0
1.42353 0 0
1.42353 0 0
1.47262 0 0
1.47262 0 0
1.52171 0 0
1.52171 0 0
1.5708 0 0
1.5708 0 0
1.61988 0 0
1.61988 0 0
1.66897 0 0
1.66897 0 0
1.71806 0 0
1.71806 0 0
1.76715 0 0
1.76715 0 0
1.81623 0 0
1.81623 0 0
1.86532 0 0
1.86532 0 0
1.91441 0 0
1.91441 0 0
1.9635 0 0
1.9635 0 0
2.01258 0 0
2.01258 0 0
2.06167 0 0
2.06167 0 0
2.11076 0 0
2.11076 0 0
2.15984 0 0
2.15984 0 0
2.20893 0 0
2.20893 0 0
2.25802 0 0
2.25802 0 0
2.30711 0 0
2.30711 0 0
2.35619 0 0
2.35619 0 0
2.40528 0 0
2.40528 0 0
2.45437 0 0
2.45437 0 0
2.50346 0 0
2.50346 0 0
2.55254 0 0
2.55254 0 0
2.60163 0 0
2.60163 0 0
2.65072 0 0
2.65072 0 0
2.69981 0 0
2.69981 0 0
2.74889 0 0
2.74889 0 0
2.79798 0 0
2.79798 0 0
2.84707 0 0
2.84707 0 0
2.89616 0 0
2.89616 0 0
2.94524 0 0
2.94524 0 0
2.99433 0 0
2.99433 0 0
3.04342 0 0
3.04342 0 0
3.09251 0 0
3.09251 0 0
3.14159 0 0
3.14159 0 0
3.19068 0 0
3.19068 0 0
3.23977 0 0
3.23977 0 0
3.28885 0 0
3.28885 0 0
3.33794 0 0
3.33794 0 0
3.38703 0 0
3.38703 0 0
3.43612 0 0
3.43612 0 0
3.4852 0 0
3.4852 0 0
3.53429 0 0
3.53429 0 0
3.58338 0 0
3.58338 0 0
3.63247 0 0
3.63247 0 0
3.68155 0 0
3.68155 0 0
3.73064 0 0
3.73064 0 0
3.77973 0 0
3.77973 0 0
3.82882 0 0
3.82882 0 0
3.8779 0 0
3.8779 0 0
3.92699 0 0
3.92699 0 0
3.97608 0 0
3.97608 0 0
4.02517 0 0
4.02517 0 0
4.07425 0 0
4.07425 0 0
4.12334 0 0
4.12334 0 0
4.17243 0 0
4.17243 0 0
4.22152 0 0
4.22152 0 0
4.2706 0 0
4.2706 0 0
4.31969 0 0
4.31969 0 0
4.36878 0 0
4.36878 0 0
4.41786 0 0
4.41786 0 0
4.46695 0 0
4.46695 0 0
4.51604 0 0
4.51604 0 0
4.56513 0 0
4.56513 0 0
4.61421 0 0
4.61421 0 0
4.6633 0 0
4.6633 0 0
4.71239 0 0
4.71239 0 0
4.76148 0 0
4.76148 0 0
4.81056 0 0
4.81056 0 0
4.85965 0 0
4.85965 0 0
4.90874 0 0
4.90874 0 0
4.95783 0 0
4.95783 0 0
5.00691 0 0
5.00691 0 0
5.056 0 0
5.056 0 0
5.10509 0 0
5.10509 0 0
5.15418 0 0
5.15418 0 0
5.20326 0 0
5.20326 0 0
5.25235 0 0
5.25235 0 0
5.30144 0 0
5.30144 0 0
5.35052 0 0
5.35052 0 0
5.39961 0 0
5.39961 0 0
5.4487 0 0
5.4487 0 0
5.49779 0 0
5.49779 0 0
5.54687 0 0
5.54687 0 0
5.59596 0 0
5.59596 0 0
5.64505 0 0
5.64505 0 0
5.69414 0 0
5.69414 0 0
5.74322 0 0
5.74322 0 0
5.79231 0 0
5.79231 0 0
5.8414 0 0
5.8414 0 0
5.89049 0 0
5.89049 0 0
5.93957 0 0
5.93957 0 0
5.98866 0 0
5.98866 0 0
6.03775 0 0
6.03775 0 0
6.08684 0 0
6.08684 0 0
6.13592 0 0
6.13592 0 0
6.18501 0 0
6.18501 0 0
6.2341 0 0
6.2341 0 0
6.28319 0 0
6.28319 0 0
6.33227 0 0
6.33227 0 0
6.38136 0 0
6.38136 0 0
6.43045 0 0
6.43045 0 0
6.47953 0 0
6.47953 0 0
6.52862 0 0
6.52862 0 0
6.57771 0 0
6.57771 0 0
6.6268 0 0
6.6268 0 0
6.67588 0 0
6.67588 0 0
6.72497 0 0
6.72497 0 0
6.77406 0 0
6.77406 0 0
6.82315 0 0
6.82315 0 0
6.87223 0 0
6.87223 0 0
6.92132 0 0
6.92132 0 0
6.97041 0 0
6.97041 0 0
7.0195 0 0
7.0195 0 0
7.06858 0 0
7.06858 0 0
7.11767 0 0
7.11767 0 0
7.16676 0 0
7.16676 0 0
7.21585 0 0
7.21585 0 0
7.26493 0 0
7.26493 0 0
7.31402 0 0
7.31402 0 0
7.36311 0 0
7.36311 0 0
7.4122 0 0
7.4122 0 0
7.46128 0 0
7.46128 0 0
7.51037 0 0
7.51037 0 0
7.55946 0 0
7.55946 0 0
7.60854 0 0
7.60854 0 0
7.65763 0 0
7.65763 0 0
7.70672 0 0
7.70672 0 0
7.75581 0 0
7.75581 0 0
7.80489 0 0
7.80489 0 0
7.85398 0 0
7.85398 0 0
7.90307 0 0
7.90307 0 0
7.95216 0 0
7.95216 0 0
8.00124 0 0
8.00124 0 0
8.05033 0 0
8.05033 0 0
8.09942 0 0
8.09942 0 0
8.14851 0 0
8.14851 0 0
8.19759 0 0
8.19759 0 0
8.24668 0 0
8.24668 0 0
8.29577 0 0
8.29577 0 0
8.34486 0 0
8.34486 0 0
8.39394 0 0
8.39394 0 0
8.44303 0 0
8.44303 0 0
8.49212 0 0
8.49212 0 0
8.54121 0 0
8.54121 0 0
8.59029 0 0
8.59029 0 0
8.63938 0 0
8.63938 0 0
8.68847 0 0
8.68847 0 0
8.73755 0 0
8.73755 0 0
8.78664 0 0
8.78664 0 0
8.83573 0 0
8.83573 0 0
8.88482 0 0
8.88482 0 0
8.9339 0 0
8.9339 0 0
8.98299 0 0
8.98299 0 0
9.03208 0 0
9.03208 0 0
9.08117 0 0
9.08117 0 0
9.13025 0 0
9.13025 0 0
9.17934 0 0
9.17934 0 0
9.22843 0 0
9.22843 0 0
9.27752 0 0
9.27752 0 0
9.3266 0 0
9.3266 0 0
9.37569 0 0
9.37569 0 0
9.42478 0 0
9.42478 0 0
9.47387 0 0
9.47387 0 0
9.52295 0 0
9.52295 0 0
9.57204 0 0
9.57204 0 0
9.62113 0 0
9.62113 0 0
9.67021 0 0
9.67021 0 0
9.7193 0 0
9.7193 0 0
9.76839 0 0
9.76839 0 0
9.81748 0 0
9.81748 0 0
9.86656 0 0
9.86656 0 0
9.91565 0 0
9.91565 0 0
9.96474 0 0
9.96474 0 0
10.0138 0 0
10.0138 0 0
10.0629 0 0
10.0629 0 0
10.112 0 0
10.112 0 0
10.1611 0 0
10.1611 0 0
10.2102 0 0
10.2102 0 0
10.2593 0 0
10.2593 0 0
10.3084 0 0
10.3084 0 0
10.3574 0 0
10.3574 0 0
10.4065 0 0
10.4065 0 0
10.4556 0 0
10.4556 0 0
10.5047 0 0
10.5047 0 0
10.5538 0 0
10.5538 0 0
10.6029 0 0
10.6029 0 0
10.652 0 0
10.652 0 0
10.701 0 0
10.701 0 0
10.7501 0 0
10.7501 0 0
10.7992 0 0
10.7992 0 0
10.8483 0 0
10.8483 0 0
10.8974 0 0
10.8974 0 0
10.9465 0 0
10.9465 0 0
10.9956 0 0
10.9956 0 0
11.0447 0 0
11.0447 0 0
11.0937 0 0
11.0937 0 0
11.1428 0 0
11.1428 0 0
11.1919 0 0
11.1919 0 0
11.241 0 0
11.241 0 0
11.2901 0 0
11.2901 0 0
11.3392 0 0
11.3392 0 0
11.3883 0 0
11.3883 0 0
11.4374 0 0
11.4374 0 0
11.4864 0 0
11.4864 0 0
11.5355 0 0
11.5355 0 0
11.5846 0 0
11.5846 0 0
11.6337 0 0
11.6337 0 0
11.6828 0 0
11.6828 0 0
11.7319 0 0
11.7319 0 0
11.781 0 0
11.781 0 0
11.8301 0 0
11.8301 0 0
11.8791 0 0
11.8791 0 0
11.9282 0 0
11.9282 0 0
11.9773 0 0
11.9773 0 0
12.0264 0 0
12.0264 0 0
12.0755 0 0
12.0755 0 0
12.1246 0 0
12.1246 0 0
12.1737 0 0
12.1737 0 0
12.2228 0 0
12.2228 0 0
12.2718 0 0
12.2718 0 0
12.3209 0 0
12.3209 0 0
12.37 0 0
12.37 0 0
12.4191 0 0
12.4191 0 0
12.4682 0 0
12.4682 0 0
12.5173 0 0
12.5173 0 0
12.5664 0 0

CELLS 256 768
2	0	1
2	2	3
2	4	5
2	6	7
2	8	9
2	10	11
2	12	13
2	14	15
2	16	17
2	18	19
2	20	21
2	22	23
2	24	25
2	26	27
2	28	29
2	30	31
2	32	33
2	34	35
2	36	37
2	38	39
2	40	41
2	42	43
2	44	45
2	46	47
2	48	49
2	50	51
2	52	53
2	54	55
2	56	57
2	58	59
2	60	61
2	62	63
2	64	65
2	66	67
2	68	69
2	70	71
2	72	73
2	74	75
2	76	77
2	78	79
2	80	81
2	82	83
2	84	85
2	86	87
2	88	89
2	90	91
2	92	93
2	94	95
2	96	97
2	98	99
2	100	101
2	102	103
2	104	105
2	106	107
2	108	109
2	110	111
2	112	113
2	114	115
2	116	117
2	118	119
2	120	121
2	122	123
2	124	125
2	126	127
2	128	129
2	130	131
2	132	133
2	134	135
2	136	137
2	138	139
2	140	141
2	142	143
2	144	145
2	146	147
2	148	149
2	150	151
2	152	153
2	154	155
2	156	157
2	158	159
2	160	161
2	162	163
2	164	165
2	166	167
2	168	169
2	170	171
2	172	173
2	174	175
2	176	177
2	178	179
2	180	181
2	182	183
2	184	185
2	186	187
2	188	189
2	190	191
2	192	193
2	194	195
2	196	197
2	198	199
2	200	201
2	202	203
2	204	205
2	206	207
2	208	209
2	210	211
2	212	213
2	214	215
2	216	217
2	218	219
2	220	221
2	222	223
2	224	225
2	226	227
2	228	229
2	230	231
2	232	233
2	234	235
2	236	237
2	238	239
2	240	241
2	242	243
2	244	245
2	246	247
2	248	249
2	250	251
2	252	253
2	254	255
2	256	257
2	258	259
2	260	261
2	262	263
2	264	265
2	266	267
2	268	269
2	270	271
2	272	273
2	274	275
2	276	277
2	278	279
2	280	281
2	282	283
2	284	285
2	286	287
2	288	289
2	290	291
2	292	293
2	294	295
2	296	297
2	298	299
2	300	301
2	302	303
2	304	305
2	306	307
2	308	309
2	310	311
2	312	313
2	314	315
2	316	317
2	318	319
2	320	321
2	322	323
2	324	325
2	326	327
2	328	329
2	330	331
2	332	333
2	334	335
2	336	337
2	338	339
2	340	341
2	342	343
2	344	345
2	346	347
2	348	349
2	350	351
2	352	353
2	354	355
2	356	357
2	358	359
2	360	361
2	362	363
2	364	365
2	366	367
2	368	369
2	370	371
2	372	373
2	374	375
2	376	377
2	378	379
2	380	381
2	382	383
2	384	385
2	386	387
2	388	389
2	390	391
2	392	393
2	394	395
2	396	397
2	398	399
2	400	401
2	402	403
2	404	405
2	406	407
2	408	409
2	410	411
2	412	413
2	414	415
2	416	417
2	418	419
2	420	421
2	422	423
2	424	425
2	426	427
2	428	429
2	430	431
2	432	433
2	434	435
2	436	437
2	438	439
2	440	441
2	442	443
2	444	445
2	446	447
2	448	449
2	450	451
2	452	453
2	454	455
2	456	457
2	458	459
2	460	461
2	462	463
2	464	465
2	466	467
2	468	469
2	470	471
2	472	473
2	474	475
2	476	477
2	478	479
2	480	481
2	482	483
2	484	485
2	486	487
2	488	489
2	490	491
2	492	493
2	494	495
2	496	497
2	498	499
2	500	501
2	502	503
2	504	505
2	506	507
2	508	509
2	510	511

CELL_TYPES 256
 3 3 3 3 3 3 3 3 3 3 3 3 3 3 3 3 3 3 3 3 3 3 3 3 3 3 3 3 3 3 3 3 3 3 3 3 3 3 3 3 3 3 3 3 3 3 3 3 3 3 3 3 3 3 3 3 3 3 3 3 3 3 3 3 3 3 3 3 3 3 3 3 3 3 3 3 3 3 3 3 3 3 3 3 3 3 3 3 3 3 3 3 3 3 3 3 3 3 3 3 3 3 3 3 3 3 3 3 3 3 3 3 3 3 3 3 3 3 3 3 3 3 3 3 3 3 3 3 3 3 3 3 3 3 3 3 3 3 3 3 3 3 3 3 3 3 3 3 3 3 3 3 3 3 3 3 3 3 3 3 3 3 3 3 3 3 3 3 3 3 3 3 3 3 3 3 3 3 3 3 3 3 3 3 3 3 3 3 3 3 3 3 3 3 3 3 3 3 3 3 3 3 3 3 3 3 3 3 3 3 3 3 3 3 3 3 3 3 3 3 3 3 3 3 3 3 3 3 3 3 3 3 3 3 3 3 3 3 3 3 3 3 3 3 3 3 3 3 3 3 3 3 3 3 3 3
POINT_DATA 512
VECTORS electric_field double
-12.565 0 0
-12.5159 0 0
-12.5159 0 0
-12.4668 0 0
-12.4668 0 0
-12.4177 0 0
-12.4177 0 0
-12.3686 0 0
-12.3686 0 0
-12.3195 0 0
-12.3195 0 0
-12.2705 0 0
-12.2705 0 0
-12.2214 0 0
-12.2214 0 0
-12.1723 0 0
-12.1723 0 0
-12.1232 0 0
-12.1232 0 0
-12.0741 0 0
-12.0741 0 0
-12.025 0 0
-12.025 0 0
-11.9759 0 0
-11.9759 0 0
-11.9268 0 0
-11.9268 0 0
-11.8778 0 0
-11.8778 0 0
-11.8287 0 0
-11.8287 0 0
-11.7796 0 0
-11.7796 0 0
-11.7305 0 0
-11.7305 0 0
-11.6814 0 0
-11.6814 0 0
-11.6323 0 0
-11.6323 0 0
-11.5832 0 0
-11.5832 0 0
-11.5341 0 0
-11.5341 0 0
-11.4851 0 0
-11.4851 0 0
-11.436 0 0
-11.436 0 0
-11.3869 0 0
-11.3869 0 0
-11.3378 0 0
-11.3378 0 0
-11.2887 0 0
-11.2887 0 0
-11.2396 0 0
-11.2396 0 0
-11.1905 0 0
-11.1905 0 0
-11.1414 0 0
-11.1414 0 0
-11.0924 0 0
-11.0924 0 0
-11.0433 0 0
-11.0433 0 0
-10.9942 0 0
-10.9942 0 0
-10.9451 0 0
-10.9451 0 0
-10.896 0 0
-10.896 0 0
-10.8469 0 0
-10.8469 0 0
-10.7978 0 0
-10.7978 0 0
-10.7487 0 0
-10.7487 0 0
-10.6997 0 0
-10.6997 0 0
-10.6506 0 0
-10.6506 0 0
-10.6015 0 0
-10.6015 0 0
-10.5524 0 0
-10.5524 0 0
-10.5033 0 0
-10.5033 0 0
-10.4542 0 0
-10.4542 0 0
-10.4051 0 0
-10.4051 0 0
-10.356 0 0
-10.356 0 0
-10.307 0 0
-10.307 0 0
-10.2579 0 0
-10.2579 0 0
-10.2088 0 0
-10.2088 0 0
-10.1597 0 0
-10.1597 0 0
-10.1106 0 0
-10.1106 0 0
-10.0615 0 0
-10.0615 0 0
-10.0124 0 0
-10.0124 0 0
-9.96335 0 0
-9.96335 0 0
-9.91426 0 0
-9.91426 0 0
-9.86517 0 0
-9.86517 0 0
-9.81609 0 0
-9.81609 0 0
-9.767 0 0
-9.767 0 0
-9.71791 0 0
-9.71791 0 0
-9.66882 0 0
-9.66882 0 0
-9.61974 0 0
-9.61974 0 0
-9.57065 0 0
-9.57065 0 0
-9.52156 0 0
-9.52156 0 0
-9.47247 0 0
-9.47247 0 0
-9.42339 0 0
-9.42339 0 0
-9.3743 0 0
-9.3743 0 0
-9.32521 0 0
-9.32521 0 0
-9.27612 0 0
-9.27612 0 0
-9.22704 0 0
-9.22704 0 0
-9.17795 0 0
-9.17795 0 0
-9.12886 0 0
-9.12886 0 0
-9.07977 0 0
-9.07977 0 0
-9.03069 0 0
-9.03069 0 0
-8.9816 0 0
-8.9816 0 0
-8.93251 0 0
-8.93251 0 0
-8.88342 0 0
-8.88342 0 0
-8.83434 0 0
-8.83434 0 0
-8.78525 0 0
-8.78525 0 0
-8.73616 0 0
-8.73616 0 0
-8.68708 0 0
-8.68708 0 0
-8.63799 0 0
-8.63799 0 0
-8.5889 0 0
-8.5889 0 0
-8.53981 0 0
-8.53981 0 0
-8.49073 0 0
-8.49073 0 0
-8.44164 0 0
-8.44164 0 0
-8.39255 0 0
-8.39255 0 0
-8.34346 0 0
-8.34346 0 0
-8.29438 0 0
-8.29438 0 0
-8.24529 0 0
-8.24529 0 0
-8.1962 0 0
-8.1962 0 0
-8.14711 0 0
-8.14711 0 0
-8.09803 0 0
-8.09803 0 0
-8.04894 0 0
-8.04894 0 0
-7.99985 0 0
-7.99985 0 0
-7.95076 0 0
-7.95076 0 0
-7.90168 0 0
-7.90168 0 0
-7.85259 0 0
-7.85259 0 0
-7.8035 0 0
-7.8035 0 0
-7.75442 0 0
-7.75442 0 0
-7.70533 0 0
-7.70533 0 0
-7.65624 0 0
-7.65624 0 0
-7.60715 0 0
-7.60715 0 0
-7.55807 0 0
-7.55807 0 0
-7.50898 0 0
-7.50898 0 0
-7.45989 0 0
-7.45989 0 0
-7.4108 0 0
-7.4108 0 0
-7.36172 0 0
-7.36172 0 0
-7.31263 0 0
-7.31263 0 0
-7.26354 0 0
-7.26354 0 0
-7.21445 0 0
-7.21445 0 0
-7.16537 0 0
-7.16537 0 0
-7.11628 0 0
-7.11628 0 0
-7.06719 0 0
-7.06719 0 0
-7.0181 0 0
-7.0181 0 0
-6.96902 0 0
-6.96902 0 0
-6.91993 0 0
-6.91993 0 0
-6.87084 0 0
-6.87084 0 0
-6.82175 0 0
-6.82175 0 0
-6.77267 0 0
-6.77267 0 0
-6.72358 0 0
-6.72358 0 0
-6.67449 0 0
-6.67449 0 0
-6.62541 0 0
-6.62541 0 0
-6.57632 0 0
-6.57632 0 0
-6.52723 0 0
-6.52723 0 0
-6.47814 0 0
-6.47814 0 0
-6.42906 0 0
-6.42906 0 0
-6.37997 0 0
-6.37997 0 0
-6.33088 0 0
-6.33088 0 0
-6.28179 0 0
-6.28179 0 0
-6.23271 0 0
-6.23271 0 0
-6.18362 0 0
-6.18362 0 0
-6.13453 0 0
-6.13453 0 0
-6.08544 0 0
-6.08544 0 0
-6.03636 0 0
-6.03636 0 0
-5.98727 0 0
-5.98727 0 0
-5.93818 0 0
-5.93818 0 0
-5.88909 0 0
-5.88909 0 0
-5.84001 0 0
-5.84001 0 0
-5.79092 0 0
-5.79092 0 0
-5.74183 0 0
-5.74183 0 0
-5.69275 0 0
-5.69275 0 0
-5.64366 0 0
-5.64366 0 0
-5.59457 0 0
-5.59457 0 0
-5.54548 0 0
-5.54548 0 0
-5.4964 0 0
-5.4964 0 0
-5.44731 0 0
-5.44731 0 0
-5.39822 0 0
-5.39822 0 0
-5.34913 0 0
-5.34913 0 0
-5.30005 0 0
-5.30005 0 0
-5.25096 0 0
-5.25096 0 0
-5.20187 0 0
-5.20187 0 0
-5.15278 0 0
-5.15278 0 0
-5.1037 0 0
-5.1037 0 0
-5.05461 0 0
-5.05461 0 0
-5.00552 0 0
-5.00552 0 0
-4.95643 0 0
-4.95643 0 0
-4.90735 0 0
-4.90735 0 0
-4.85826 0 0
-4.85826 0 0
-4.80917 0 0
-4.80917 0 0
-4.76008 0 0
-4.76008 0 0
-4.711 0 0
-4.711 0 0
-4.66191 0 0
-4.66191 0 0
-4.61282 0 0
-4.61282 0 0
-4.56374 0 0
-4.56374 0 0
-4.51465 0 0
-4.51465 0 0
-4.46556 0 0
-4.46556 0 0
-4.41647 0 0
-4.41647 0 0
-4.36739 0 0
-4.36739 0 0
-4.3183 0 0
-4.3183 0 0
-4.26921 0 0
-4.26921 0 0
-4.22012 0 0
-4.22012 0 0
-4.17104 0 0
-4.17104 0 0
-4.12195 0 0
-4.12195 0 0
-4.07286 0 0
-4.07286 0 0
-4.02377 0 0
-4.02377 0 0
-3.97469 0 0
-3.97469 0 0
-3.9256 0 0
-3.9256 0 0
-3.87651 0 0
-3.87651 0 0
-3.82742 0 0
-3.82742 0 0
-3.77834 0 0
-3.77834 0 0
-3.72925 0 0
-3.72925 0 0
-3.68016 0 0
-3.68016 0 0
-3.63107 0 0
-3.63107 0 0
-3.58199 0 0
-3.58199 0 0
-3.5329 0 0
-3.5329 0 0
-3.48381 0 0
-3.48381 0 0
-3.43473 0 0
-3.43473 0 0
-3.38564 0 0
-3.38564 0 0
-3.33655 0 0
-3.33655 0 0
-3.28746 0 0
-3.28746 0 0
-3.23838 0 0
-3.23838 0 0
-3.18929 0 0
-3.18929 0 0
-3.1402 0 0
-3.1402 0 0
-3.09111 0 0
-3.09111 0 0
-3.04203 0 0
-3.04203 0 0
-2.99294 0 0
-2.99294 0 0
-2.94385 0 0
-2.94385 0 0
-2.89476 0 0
-2.89476 0 0
-2.84568 0 0
-2.84568 0 0
-2.79659 0 0
-2.79659 0 0
-2.7475 0 0
-2.7475 0 0
-2.69841 0 0
-2.69841 0 0
-2.64933 0 0
-2.64933 0 0
-2.60024 0 0
-2.60024 0 0
-2.55115 0 0
-2.55115 0 0
-2.50207 0 0
-2.50207 0 0
-2.45298 0 0
-2.45298 0 0
-2.40389 0 0
-2.40389 0 0
-2.3548 0 0
-2.3548 0 0
-2.30572 0 0
-2.30572 0 0
-2.25663 0 0
-2.25663 0 0
-2.20754 0 0
-2.20754 0 0
-2.15845 0 0
-2.15845 0 0
-2.10937 0 0
-2.10937 0 0
-2.06028 0 0
-2.06028 0 0
-2.01119 0 0
-2.01119 0 0
-1.9621 0 0
-1.9621 0 0
-1.91302 0 0
-1.91302 0 0
-1.86393 0 0
-1.86393 0 0
-1.81484 0 0
-1.81484 0 0
-1.76575 0 0
-1.76575 0 0
-1.71667 0 0
-1.71667 0 0
-1.66758 0 0
-1.66758 0 0
-1.6185 0 0
-1.6185 0 0
-1.56941 0 0
-1.56941 0 0
-1.52032 0 0
-1.52032 0 0
-1.47123 0 0
-1.47123 0 0
-1.42215 0 0
-1.42215 0 0
-1.37306 0 0
-1.37306 0 0
-1.32397 0 0
-1.32397 0 0
-1.27489 0 0
-1.27489 0 0
-1.2258 0 0
-1.2258 0 0
-1.17671 0 0
-1.17671 0 0
-1.12762 0 0
-1.12762 0 0
-1.07854 0 0
-1.07854 0 0
-1.02945 0 0
-1.02945 0 0
-0.980361 0 0
-0.980361 0 0
-0.931274 0 0
-0.931274 0 0
-0.882186 0 0
-0.882187 0 0
-0.833102 0 0
-0.833103 0 0
-0.784017 0 0
-0.784016 0 0
-0.734929 0 0
-0.734928 0 0
-0.685845 0 0
-0.685845 0 0
-0.636761 0 0
-0.636761 0 0
-0.587673 0 0
-0.587674 0 0
-0.538596 0 0
-0.538594 0 0
-0.489507 0 0
-0.489507 0 0
-0.440437 0 0
-0.440436 0 0
-0.391353 0 0
-0.391353 0 0
-0.342283 0 0
-0.342282 0 0
-0.293244 0 0
-0.293269 0 0
-0.244294 0 0
-0.244285 0 0
-0.195394 0 0
-0.195394 0 0
-0.146654 0 0
-0.146654 0 0
-0.0981749 0 0
-0.0981748 0 0
-0.0490874 0 0
-0.0490874 0 0
3.63798e-12 0 0
SCALARS potential double 1
LOOKUP_TABLE default
0 0.615577 0.615577 1.22874 1.22874 1.8395 1.8395 2.44785 2.44785 3.05379 3.05379 3.65732 3.65732 4.25844 4.25844 4.85715 4.85715 5.45345 5.45345 6.04734 6.04734 6.63882 6.63882 7.22789 7.22789 7.81456 7.81456 8.39881 8.39881 8.98065 8.98065 9.56009 9.56009 10.1371 10.1371 10.7117 10.7117 11.2839 11.2839 11.8537 11.8537 12.4211 12.4211 12.9861 12.9861 13.5487 13.5487 14.1088 14.1088 14.6666 14.6666 15.2219 15.2219 15.7748 15.7748 16.3253 16.3253 16.8735 16.8735 17.4192 17.4192 17.9624 17.9624 18.5033 18.5033 19.0418 19.0418 19.5779 19.5779 20.1115 20.1115 20.6427 20.6427 21.1716 21.1716 21.698 21.698 22.222 22.222 22.7436 22.7436 23.2628 23.2628 23.7796 23.7796 24.294 24.294 24.8059 24.8059 25.3155 25.3155 25.8226 25.8226 26.3274 26.3274 26.8297 26.8297 27.3296 27.3296 27.8271 27.8271 28.3222 28.3222 28.8149 28.8149 29.3052 29.3052 29.7931 29.7931 30.2785 30.2785 30.7616 30.7616 31.2422 31.2422 31.7205 31.7205 32.1963 32.1963 32.6697 32.6697 33.1407 33.1407 33.6093 33.6093 34.0755 34.0755 34.5392 34.5392 35.0006 35.0006 35.4596 35.4596 35.9161 35.9161 36.3702 36.3702 36.822 36.822 37.2713 37.2713 37.7182 37.7182 38.1627 38.1627 38.6048 38.6048 39.0445 39.0445 39.4817 39.4817 39.9166 39.9166 40.349 40.349 40.7791 40.7791 41.2067 41.2067 41.6319 41.6319 42.0547 42.0547 42.4751 42.4751 42.8931 42.8931 43.3087 43.3087 43.7219 43.7219 44.1327 44.1327 44.541 44.541 44.947 44.947 45.3505 45.3505 45.7516 45.7516 46.1503 46.1503 46.5466 46.5466 46.9405 46.9405 47.332 47.332 47.7211 47.7211 48.1078 48.1078 48.492 48.492 48.8739 48.8739 49.2533 49.2533 49.6303 49.6303 50.005 50.005 50.3772 50.3772 50.747 50.747 51.1144 51.1144 51.4793 51.4793 51.8419 51.8419 52.2021 52.2021 52.5598 52.5598 52.9152 52.9152 53.2681 53.2681 53.6186 53.6186 53.9667 53.9667 54.3125 54.3125 54.6558 54.6558 54.9966 54.9966 55.3351 55.3351 55.6712 55.6712 56.0048 56.0048 56.3361 56.3361 56.6649 56.6649 56.9914 56.9914 57.3154 57.3154 57.637 57.637 57.9562 57.9562 58.273 58.273 58.5873 58.5873 58.8993 58.8993 59.2089 59.2089 59.516 59.516 59.8208 59.8208 60.1231 60.1231 60.423 60.423 60.7205 60.7205 61.0157 61.0157 61.3083 61.3083 61.5986 61.5986 61.8865 61.8865 62.172 62.172 62.455 62.455 62.7357 62.7357 63.0139 63.0139 63.2897 63.2897 63.5632 63.5632 63.8342 63.8342 64.1028 64.1028 64.369 64.369 64.6327 64.6327 64.8941 64.8941 65.1531 65.1531 65.4096 65.4096 65.6638 65.6638 65.9155 65.9155 66.1648 66.1648 66.4117 66.4117 66.6562 66.6562 66.8983 66.8983 67.138 67.138 67.3753 67.3753 67.6101 67.6101 67.8426 67.8426 68.0726 68.0726 68.3003 68.3003 68.5255 68.5255 68.7483 68.7483 68.9687 68.9687 69.1867 69.1867 69.4023 69.4023 69.6155 69.6155 69.8263 69.8263 70.0346 70.0346 70.2406 70.2406 70.4441 70.4441 70.6452 70.6452 70.844 70.844 71.0403 71.0403 71.2342 71.2342 71.4257 71.4257 71.6148 71.6148 71.8014 71.8014 71.9857 71.9857 72.1675 72.1675 72.347 72.347 72.524 72.524 72.6987 72.6987 72.8709 72.8709 73.0407 73.0407 73.2081 73.2081 73.3731 73.3731 73.5356 73.5356 73.6958 73.6958 73.8536 73.8536 74.0089 74.0089 74.1619 74.1619 74.3124 74.3124 74.4605 74.4605 74.6062 74.6062 74.7495 74.7495 74.8904 74.8904 75.0289 75.0289 75.165 75.165 75.2986 75.2986 75.4299 75.4299 75.5587 75.5587 75.6852 75.6852 75.8092 75.8092 75.9308 75.9308 76.05 76.05 76.1668 76.1668 76.2812 76.2812 76.3932 76.3932 76.5027 76.5027 76.6099 76.6099 76.7146 76.7146 76.817 76.817 76.9169 76.9169 77.0144 77.0144 77.1095 77.1095 77.2022 77.2022 77.2925 77.2925 77.3804 77.3804 77.4659 77.4659 77.5489 77.5489 77.6296 77.6296 77.7078 77.7078 77.7837 77.7837 77.8571 77.8571 77.9281 77.9281 77.9967 77.9967 78.0629 78.0629 78.1267 78.1267 78.1881 78.1881 78.247 78.247 78.3036 78.3036 78.3577 78.3577 78.4095 78.4095 78.4588 78.4588 78.5057 78.5057 78.5502 78.5502 78.5923 78.5923 78.632 78.632 78.6693 78.6693 78.7042 78.7042 78.7366 78.7366 78.7667 78.7667 78.7943 78.7943 78.8196 78.8196 78.8424 78.8424 78.8628 78.8628 78.8808 78.8808 78.8964 78.8964 78.9096 78.9096 78.9204 78.9204 78.9288 78.9288 78.9348 78.9348 78.9384 78.9384 78.9396 
SCALARS x_coordinate double 1
LOOKUP_TABLE default
0 0.0490874 0.0490874 0.0981748 0.0981748 0.147262 0.147262 0.19635 0.19635 0.245437 0.245437 0.294524 0.294524 0.343612 0.343612 0.392699 0.392699 0.441786 0.441786 0.490874 0.490874 0.539961 0.539961 0.589049 0.589049 0.638136 0.638136 0.687223 0.687223 0.736311 0.736311 0.785398 0.785398 0.834486 0.834486 0.883573 0.883573 0.93266 0.93266 0.981748 0.981748 1.03084 1.03084 1.07992 1.07992 1.12901 1.12901 1.1781 1.1781 1.22718 1.22718 1.27627 1.27627 1.32536 1.32536 1.37445 1.37445 1.42353 1.42353 1.47262 1.47262 1.52171 1.52171 1.5708 1.5708 1.61988 1.61988 1.66897 1.66897 1.71806 1.71806 1.76715 1.76715 1.81623 1.81623 1.86532 1.86532 1.91441 1.91441 1.9635 1.9635 2.01258 2.01258 2.06167 2.06167 2.11076 2.11076 2.15984 2.15984 2.20893 2.20893 2.25802 2.25802 2.30711 2.30711 2.35619 2.35619 2.40528 2.40528 2.45437 2.45437 2.50346 2.50346 2.55254 2.55254 2.60163 2.60163 2.65072 2.65072 2.69981 2.69981 2.74889 2.74889 2.79798 2.79798 2.84707 2.84707 2.89616 2.89616 2.94524 2.94524 2.99433 2.99433 3.04342 3.04342 3.09251 3.09251 3.14159 3.14159 3.19068 3.19068 3.23977 3.23977 3.28885 3.28885 3.33794 3.33794 3.38703 3.38703 3.43612 3.43612 3.4852 3.4852 3.53429 3.53429 3.58338 3.58338 3.63247 3.63247 3.68155 3.68155 3.73064 3.73064 3.77973 3.77973 3.82882 3.82882 3.8779 3.8779 3.92699 3.92699 3.97608 3.97608 4.02517 4.02517 4.07425 4.07425 4.12334 4.12334 4.17243 4.17243 4.22152 4.22152 4.2706 4.2706 4.31969 4.31969 4.36878 4.36878 4.41786 4.41786 4.46695 4.46695 4.51604 4.51604 4.56513 4.56513 4.61421 4.61421 4.6633 4.6633 4.71239 4.71239 4.76148 4.76148 4.81056 4.81056 4.85965 4.85965 4.90874 4.90874 4.95783 4.95783 5.00691 5.00691 5.056 5.056 5.10509 5.10509 5.15418 5.15418 5.20326 5.20326 5.25235 5.25235 5.30144 5.30144 5.35052 5.35052 5.39961 5.39961 5.4487 5.4487 5.49779 5.49779 5.54687 5.54687 5.59596 5.59596 5.64505 5.64505 5.69414 5.69414 5.74322 5.74322 5.79231 5.79231 5.8414 5.8414 5.89049 5.89049 5.93957 5.93957 5.98866 5.98866 6.03775 6.03775 6.08684 6.08684 6.13592 6.13592 6.18501 6.18501 6.2341 6.2341 6.28319 6.28319 6.33227 6.33227 6.38136 6.38136 6.43045 6.43045 6.47953 6.47953 6.52862 6.52862 6.57771 6.57771 6.6268 6.6268 6.67588 6.67588 6.72497 6.72497 6.77406 6.77406 6.82315 6.82315 6.87223 6.87223 6.92132 6.92132 6.97041 6.97041 7.0195 7.0195 7.06858 7.06858 7.11767 7.11767 7.16676 7.16676 7.21585 7.21585 7.26493 7.26493 7.31402 7.31402 7.36311 7.36311 7.4122 7.4122 7.46128 7.46128 7.51037 7.51037 7.55946 7.55946 7.60854 7.60854 7.65763 7.65763 7.70672 7.70672 7.75581 7.75581 7.80489 7.80489 7.85398 7.85398 7.90307 7.90307 7.95216 7.95216 8.00124 8.00124 8.05033 8.05033 8.09942 8.09942 8.14851 8.14851 8.19759 8.19759 8.24668 8.24668 8.29577 8.29577 8.34486 8.34486 8.39394 8.39394 8.44303 8.44303 8.49212 8.49212 8.54121 8.54121 8.59029 8.59029 8.63938 8.63938 8.68847 8.68847 8.73755 8.73755 8.78664 8.78664 8.83573 8.83573 8.88482 8.88482 8.9339 8.9339 8.98299 8.98299 9.03208 9.03208 9.08117 9.08117 9.13025 9.13025 9.17934 9.17934 9.22843 9.22843 9.27752 9.27752 9.3266 9.3266 9.37569 9.37569 9.42478 9.42478 9.47387 9.47387 9.52295 9.52295 9.57204 9.57204 9.62113 9.62113 9.67021 9.67021 9.7193 9.7193 9.76839 9.76839 9.81748 9.81748 9.86656 9.86656 9.91565 9.91565 9.96474 9.96474 10.0138 10.0138 10.0629 10.0629 10.112 10.112 10.1611 10.1611 10.2102 10.2102 10.2593 10.2593 10.3084 10.3084 10.3574 10.3574 10.4065 10.4065 10.4556 10.4556 10.5047 10.5047 10.5538 10.5538 10.6029 10.6029 10.652 10.652 10.701 10.701 10.7501 10.7501 10.7992 10.7992 10.8483 10.8483 10.8974 10.8974 10.9465 10.9465 10.9956 10.9956 11.0447 11.0447 11.0937 11.0937 11.1428 11.1428 11.1919 11.1919 11.241 11.241 11.2901 11.2901 11.3392 11.3392 11.3883 11.3883 11.4374 11.4374 11.4864 11.4864 11.5355 11.5355 11.5846 11.5846 11.6337 11.6337 11.6828 11.6828 11.7319 11.7319 11.781 11.781 11.8301 11.8301 11.8791 11.8791 11.9282 11.9282 11.9773 11.9773 12.0264 12.0264 12.0755 12.0755 12.1246 12.1246 12.1737 12.1737 12.2228 12.2228 12.2718 12.2718 12.3209 12.3209 12.37 12.37 12.4191 12.4191 12.4682 12.4682 12.5173 12.5173 12.5664 
