# vtk DataFile Version 3.0
#This file was generated by the deal.II library on 2026/3/10 at 19:07:54
ASCII
DATASET UNSTRUCTURED_GRID

POINTS 512 double
0 0 0
0.0490874 0 0
0.0490874 0 0
0.0981748 0 0
0.0981748 0 0
0.147262 0 0
0.147262 0 0
0.19635 0 0
0.19635 0 0
0.245437 0 0
0.245437 0 0
0.294524 0 0
0.294524 0 0
0.343612 0 0
0.343612 0 0
0.392699 0 0
0.392699 0 0
0.441786 0 0
0.441786 0 0
0.490874 0 0
0.490874 0 0
0.539961 0 0
0.539961 0 0
0.589049 0 0
0.589049 0 0
0.638136 0 0
0.638136 0 0
0.687223 0 0
0.687223 0 0
0.736311 0 0
0.736311 0 0
0.785398 0 0
0.785398 0 0
0.834486 0 0
0.834486 0 0
0.883573 0 0
0.883573 0 0
0.93266 0 0
0.93266 0 0
0.981748 0 0
0.981748 0 0
1.03084 0 0
1.03084 0 0
1.07992 0 0
1.07992 0 0
1.12901 0 0
1.12901 0 0
1.1781 0 0
1.1781 0 0
1.22718 0 0
1.22718 0 0
1.27627 0 0
1.27627 0 0
1.32536 0 0
1.32536 0 0
1.37445 0 0
1.37445 0 0
1.42353 0 0
1.42353 0 0
1.47262 0 0
1.47262 0 0
1.52171 0 0
1.52171 0 0
1.5708 0 0
1.5708 0 0
1.61988 0 0
1.61988 0 0
1.66897 0 0
1.66897 0 0
1.71806 0 0
1.71806 0 0
1.76715 0 0
1.76715 0 0
1.81623 0 0
1.81623 0 0
1.86532 0 0
1.86532 0 0
1.91441 0 0
1.91441 0 0
1.9635 0 0
1.9635 0 0
2.01258 0 0
2.01258 0 0
2.06167 0 0
2.06167 0 0
2.11076 0 0
2.11076 0 0
2.15984 0 0
2.15984 0 0
2.20893 0 0
2.20893 0 0
2.25802 0 0
2.25802 0 0
2.30711 0 0
2.30711 0 0
2.35619 0 0
2.35619 0 0
2.40528 0 0
2.40528 0 0
2.45437 0 0
2.45437 0 0
2.50346 0 0
2.50346 0 0
2.55254 0 0
2.55254 0 0
2.60163 0 0
2.60163 0 0
2.65072 0 0
2.65072 0 0
2.69981 0 0
2.69981 0 0
2.74889 0 0
2.74889 0 0
2.79798 0 0
2.79798 0 0
2.84707 0 0
2.84707 0 0
2.89616 0 0
2.89616 0 0
2.94524 0 0
2.94524 0 0
2.99433 0 0
2.99433 0 0
3.04342 0 0
3.04342 0 0
3.09251 0 0
3.09251 0 0
3.14159 0 0
3.14159 0 0
3.19068 0 0
3.19068 0 0
3.23977 0 0
3.23977 0 0
3.28885 0 0
3.28885 0 0
3.33794 0 0
3.33794 0 0
3.38703 0 0
3.38703 0 0
3.43612 0 0
3.43612 0 0
3.4852 0 0
3.4852 0 0
3.53429 0 0
3.53429 0 0
3.58338 0 0
3.58338 0 0
3.63247 0 0
3.63247 0 0
3.68155 0 0
3.68155 0 0
3.73064 0 0
3.73064 0 0
3.77973 0 0
3.77973 0 0
3.82882 0 0
3.82882 0 0
3.8779 0 0
3.8779 0 0
3.92699 0 0
3.92699 0 0
3.97608 0 0
3.97608 0 0
4.02517 0 0
4.02517 0 0
4.07425 0 0
4.07425 0 0
4.12334 0 0
4.12334 0 0
4.17243 0 0
4.17243 0 0
4.22152 0 0
4.22152 0 0
4.2706 0 0
4.2706 0 0
4.31969 0 0
4.31969 0 0
4.36878 0 0
4.36878 0 0
4.41786 0 0
4.41786 0 0
4.46695 0 0
4.46695 0 0
4.51604 0 0
4.51604 0 0
4.56513 0 0
4.56513 0 0
4.61421 0 0
4.61421 0 0
4.6633 0 0
4.6633 0 0
4.71239 0 0
4.71239 0 0
4.76148 0 0
4.76148 0 0
4.81056 0 0
4.81056 0 0
4.85965 0 0
4.85965 0 0
4.90874 0 0
4.90874 0 0
4.95783 0 0
4.95783 0 0
5.00691 0 0
5.00691 0 0
5.056 0 0
5.056 0 0
5.10509 0 0
5.10509 0 0
5.15418 0 0
5.15418 0 0
5.20326 0 0
5.20326 0 0
5.25235 0 0
5.25235 0 0
5.30144 0 0
5.30144 0 0
5.35052 0 0
5.35052 0 0
5.39961 0 0
5.39961 0 0
5.4487 0 0
5.4487 0 0
5.49779 0 0
5.49779 0 0
5.54687 0 0
5.54687 0 0
5.59596 0 0
5.59596 0 0
5.64505 0 0
5.64505 0 0
5.69414 0 0
5.69414 0 0
5.74322 0 0
5.74322 0 0
5.79231 0 0
5.79231 0 0
5.8414 0 0
5.8414 0 0
5.89049 0 0
5.89049 0 0
5.93957 0 0
5.93957 0 0
5.98866 0 0
5.98866 0 0
6.03775 0 0
6.03775 0 0
6.08684 0 0
6.08684 0 0
6.13592 0 0
6.13592 0 0
6.18501 0 0
6.18501 0 0
6.2341 0 0
6.2341 0 0
6.28319 0 0
6.28319 0 0
6.33227 0 0
6.33227 0 0
6.38136 0 0
6.38136 0 0
6.43045 0 0
6.43045 0 0
6.47953 0 0
6.47953 0 0
6.52862 0 0
6.52862 0 0
6.57771 0 0
6.57771 0 0
6.6268 0 0
6.6268 0 0
6.67588 0 0
6.67588 0 0
6.72497 0 0
6.72497 0 0
6.77406 0 0
6.77406 0 0
6.82315 0 0
6.82315 0 0
6.87223 0 0
6.87223 0 0
6.92132 0 0
6.92132 0 0
6.97041 0 0
6.97041 0 0
7.0195 0 0
7.0195 0 0
7.06858 0 0
7.06858 0 0
7.11767 0 0
7.11767 0 0
7.16676 0 0
7.16676 0 0
7.21585 0 0
7.21585 0 0
7.26493 0 0
7.26493 0 0
7.31402 0 0
7.31402 0 0
7.36311 0 0
7.36311 0 0
7.4122 0 0
7.4122 0 0
7.46128 0 0
7.46128 0 0
7.51037 0 0
7.51037 0 0
7.55946 0 0
7.55946 0 0
7.60854 0 0
7.60854 0 0
7.65763 0 0
7.65763 0 0
7.70672 0 0
7.70672 0 0
7.75581 0 0
7.75581 0 0
7.80489 0 0
7.80489 0 0
7.85398 0 0
7.85398 0 0
7.90307 0 0
7.90307 0 0
7.95216 0 0
7.95216 0 0
8.00124 0 0
8.00124 0 0
8.05033 0 0
8.05033 0 0
8.09942 0 0
8.09942 0 0
8.14851 0 0
8.14851 0 0
8.19759 0 0
8.19759 0 0
8.24668 0 0
8.24668 0 0
8.29577 0 0
8.29577 0 0
8.34486 0 0
8.34486 0 0
8.39394 0 0
8.39394 0 0
8.44303 0 0
8.44303 0 0
8.49212 0 0
8.49212 0 0
8.54121 0 0
8.54121 0 0
8.59029 0 0
8.59029 0 0
8.63938 0 0
8.63938 0 0
8.68847 0 0
8.68847 0 0
8.73755 0 0
8.73755 0 0
8.78664 0 0
8.78664 0 0
8.83573 0 0
8.83573 0 0
8.88482 0 0
8.88482 0 0
8.9339 0 0
8.9339 0 0
8.98299 0 0
8.98299 0 0
9.03208 0 0
9.03208 0 0
9.08117 0 0
9.08117 0 0
9.13025 0 0
9.13025 0 0
9.17934 0 0
9.17934 0 0
9.22843 0 0
9.22843 0 0
9.27752 0 0
9.27752 0 0
9.3266 0 0
9.3266 0 0
9.37569 0 0
9.37569 0 0
9.42478 0 0
9.42478 0 0
9.47387 0 0
9.47387 0 0
9.52295 0 0
9.52295 0 0
9.57204 0 0
9.57204 0 0
9.62113 0 0
9.62113 0 0
9.67021 0 0
9.67021 0 0
9.7193 0 0
9.7193 0 0
9.76839 0 0
9.76839 0 0
9.81748 0 0
9.81748 0 0
9.86656 0 0
9.86656 0 0
9.91565 0 0
9.91565 0 0
9.96474 0 0
9.96474 0 0
10.0138 0 0
10.0138 0 0
10.0629 0 0
10.0629 0 0
10.112 0 0
10.112 0 0
10.1611 0 0
10.1611 0 0
10.2102 0 0
10.2102 0 0
10.2593 0 0
10.2593 0 0
10.3084 0 0
10.3084 0 0
10.3574 0 0
10.3574 0 0
10.4065 0 0
10.4065 0 0
10.4556 0 0
10.4556 0 0
10.5047 0 0
10.5047 0 0
10.5538 0 0
10.5538 0 0
10.6029 0 0
10.6029 0 0
10.652 0 0
10.652 0 0
10.701 0 0
10.701 0 0
10.7501 0 0
10.7501 0 0
10.7992 0 0
10.7992 0 0
10.8483 0 0
10.8483 0 0
10.8974 0 0
10.8974 0 0
10.9465 0 0
10.9465 0 0
10.9956 0 0
10.9956 0 0
11.0447 0 0
11.0447 0 0
11.0937 0 0
11.0937 0 0
11.1428 0 0
11.1428 0 0
11.1919 0 0
11.1919 0 0
11.241 0 0
11.241 0 0
11.2901 0 0
11.2901 0 0
11.3392 0 0
11.3392 0 0
11.3883 0 0
11.3883 0 0
11.4374 0 0
11.4374 0 0
11.4864 0 0
11.4864 0 0
11.5355 0 0
11.5355 0 0
11.5846 0 0
11.5846 0 0
11.6337 0 0
11.6337 0 0
11.6828 0 0
11.6828 0 0
11.7319 0 0
11.7319 0 0
11.781 0 0
11.781 0 0
11.8301 0 0
11.8301 0 0
11.8791 0 0
11.8791 0 0
11.9282 0 0
11.9282 0 0
11.9773 0 0
11.9773 0 0
12.0264 0 0
12.0264 0 0
12.0755 0 0
12.0755 0 0
12.1246 0 0
12.1246 0 0
12.1737 0 0
12.1737 0 0
12.2228 0 0
12.2228 0 0
12.2718 0 0
12.2718 0 0
12.3209 0 0
12.3209 0 0
12.37 0 0
12.37 0 0
12.4191 0 0
12.4191 0 0
12.4682 0 0
12.4682 0 0
12.5173 0 0
12.5173 0 0
12.5664 0 0

CELLS 256 768
2	0	1
2	2	3
2	4	5
2	6	7
2	8	9
2	10	11
2	12	13
2	14	15
2	16	17
2	18	19
2	20	21
2	22	23
2	24	25
2	26	27
2	28	29
2	30	31
2	32	33
2	34	35
2	36	37
2	38	39
2	40	41
2	42	43
2	44	45
2	46	47
2	48	49
2	50	51
2	52	53
2	54	55
2	56	57
2	58	59
2	60	61
2	62	63
2	64	65
2	66	67
2	68	69
2	70	71
2	72	73
2	74	75
2	76	77
2	78	79
2	80	81
2	82	83
2	84	85
2	86	87
2	88	89
2	90	91
2	92	93
2	94	95
2	96	97
2	98	99
2	100	101
2	102	103
2	104	105
2	106	107
2	108	109
2	110	111
2	112	113
2	114	115
2	116	117
2	118	119
2	120	121
2	122	123
2	124	125
2	126	127
2	128	129
2	130	131
2	132	133
2	134	135
2	136	137
2	138	139
2	140	141
2	142	143
2	144	145
2	146	147
2	148	149
2	150	151
2	152	153
2	154	155
2	156	157
2	158	159
2	160	161
2	162	163
2	164	165
2	166	167
2	168	169
2	170	171
2	172	173
2	174	175
2	176	177
2	178	179
2	180	181
2	182	183
2	184	185
2	186	187
2	188	189
2	190	191
2	192	193
2	194	195
2	196	197
2	198	199
2	200	201
2	202	203
2	204	205
2	206	207
2	208	209
2	210	211
2	212	213
2	214	215
2	216	217
2	218	219
2	220	221
2	222	223
2	224	225
2	226	227
2	228	229
2	230	231
2	232	233
2	234	235
2	236	237
2	238	239
2	240	241
2	242	243
2	244	245
2	246	247
2	248	249
2	250	251
2	252	253
2	254	255
2	256	257
2	258	259
2	260	261
2	262	263
2	264	265
2	266	267
2	268	269
2	270	271
2	272	273
2	274	275
2	276	277
2	278	279
2	280	281
2	282	283
2	284	285
2	286	287
2	288	289
2	290	291
2	292	293
2	294	295
2	296	297
2	298	299
2	300	301
2	302	303
2	304	305
2	306	307
2	308	309
2	310	311
2	312	313
2	314	315
2	316	317
2	318	319
2	320	321
2	322	323
2	324	325
2	326	327
2	328	329
2	330	331
2	332	333
2	334	335
2	336	337
2	338	339
2	340	341
2	342	343
2	344	345
2	346	347
2	348	349
2	350	351
2	352	353
2	354	355
2	356	357
2	358	359
2	360	361
2	362	363
2	364	365
2	366	367
2	368	369
2	370	371
2	372	373
2	374	375
2	376	377
2	378	379
2	380	381
2	382	383
2	384	385
2	386	387
2	388	389
2	390	391
2	392	393
2	394	395
2	396	397
2	398	399
2	400	401
2	402	403
2	404	405
2	406	407
2	408	409
2	410	411
2	412	413
2	414	415
2	416	417
2	418	419
2	420	421
2	422	423
2	424	425
2	426	427
2	428	429
2	430	431
2	432	433
2	434	435
2	436	437
2	438	439
2	440	441
2	442	443
2	444	445
2	446	447
2	448	449
2	450	451
2	452	453
2	454	455
2	456	457
2	458	459
2	460	461
2	462	463
2	464	465
2	466	467
2	468	469
2	470	471
2	472	473
2	474	475
2	476	477
2	478	479
2	480	481
2	482	483
2	484	485
2	486	487
2	488	489
2	490	491
2	492	493
2	494	495
2	496	497
2	498	499
2	500	501
2	502	503
2	504	505
2	506	507
2	508	509
2	510	511

CELL_TYPES 256
 3 3 3 3 3 3 3 3 3 3 3 3 3 3 3 3 3 3 3 3 3 3 3 3 3 3 3 3 3 3 3 3 3 3 3 3 3 3 3 3 3 3 3 3 3 3 3 3 3 3 3 3 3 3 3 3 3 3 3 3 3 3 3 3 3 3 3 3 3 3 3 3 3 3 3 3 3 3 3 3 3 3 3 3 3 3 3 3 3 3 3 3 3 3 3 3 3 3 3 3 3 3 3 3 3 3 3 3 3 3 3 3 3 3 3 3 3 3 3 3 3 3 3 3 3 3 3 3 3 3 3 3 3 3 3 3 3 3 3 3 3 3 3 3 3 3 3 3 3 3 3 3 3 3 3 3 3 3 3 3 3 3 3 3 3 3 3 3 3 3 3 3 3 3 3 3 3 3 3 3 3 3 3 3 3 3 3 3 3 3 3 3 3 3 3 3 3 3 3 3 3 3 3 3 3 3 3 3 3 3 3 3 3 3 3 3 3 3 3 3 3 3 3 3 3 3 3 3 3 3 3 3 3 3 3 3 3 3 3 3 3 3 3 3 3 3 3 3 3 3 3 3 3 3 3 3
POINT_DATA 512
VECTORS electric_field double
-12.5663 0 0
-12.5172 0 0
-12.5172 0 0
-12.4681 0 0
-12.4681 0 0
-12.419 0 0
-12.419 0 0
-12.3699 0 0
-12.3699 0 0
-12.3208 0 0
-12.3208 0 0
-12.2718 0 0
-12.2718 0 0
-12.2227 0 0
-12.2227 0 0
-12.1736 0 0
-12.1736 0 0
-12.1245 0 0
-12.1245 0 0
-12.0754 0 0
-12.0754 0 0
-12.0263 0 0
-12.0263 0 0
-11.9772 0 0
-11.9772 0 0
-11.9282 0 0
-11.9282 0 0
-11.8791 0 0
-11.8791 0 0
-11.83 0 0
-11.83 0 0
-11.7809 0 0
-11.7809 0 0
-11.7318 0 0
-11.7318 0 0
-11.6827 0 0
-11.6827 0 0
-11.6336 0 0
-11.6336 0 0
-11.5845 0 0
-11.5845 0 0
-11.5355 0 0
-11.5355 0 0
-11.4864 0 0
-11.4864 0 0
-11.4373 0 0
-11.4373 0 0
-11.3882 0 0
-11.3882 0 0
-11.3391 0 0
-11.3391 0 0
-11.29 0 0
-11.29 0 0
-11.2409 0 0
-11.2409 0 0
-11.1918 0 0
-11.1918 0 0
-11.1428 0 0
-11.1428 0 0
-11.0937 0 0
-11.0937 0 0
-11.0446 0 0
-11.0446 0 0
-10.9955 0 0
-10.9955 0 0
-10.9464 0 0
-10.9464 0 0
-10.8973 0 0
-10.8973 0 0
-10.8482 0 0
-10.8482 0 0
-10.7991 0 0
-10.7991 0 0
-10.7501 0 0
-10.7501 0 0
-10.701 0 0
-10.701 0 0
-10.6519 0 0
-10.6519 0 0
-10.6028 0 0
-10.6028 0 0
-10.5537 0 0
-10.5537 0 0
-10.5046 0 0
-10.5046 0 0
-10.4555 0 0
-10.4555 0 0
-10.4064 0 0
-10.4064 0 0
-10.3574 0 0
-10.3574 0 0
-10.3083 0 0
-10.3083 0 0
-10.2592 0 0
-10.2592 0 0
-10.2101 0 0
-10.2101 0 0
-10.161 0 0
-10.161 0 0
-10.1119 0 0
-10.1119 0 0
-10.0628 0 0
-10.0628 0 0
-10.0137 0 0
-10.0137 0 0
-9.96465 0 0
-9.96465 0 0
-9.91557 0 0
-9.91557 0 0
-9.86648 0 0
-9.86648 0 0
-9.81739 0 0
-9.81739 0 0
-9.76831 0 0
-9.76831 0 0
-9.71922 0 0
-9.71922 0 0
-9.67013 0 0
-9.67013 0 0
-9.62104 0 0
-9.62104 0 0
-9.57196 0 0
-9.57196 0 0
-9.52287 0 0
-9.52287 0 0
-9.47378 0 0
-9.47378 0 0
-9.42469 0 0
-9.42469 0 0
-9.37561 0 0
-9.37561 0 0
-9.32652 0 0
-9.32652 0 0
-9.27743 0 0
-9.27743 0 0
-9.22834 0 0
-9.22834 0 0
-9.17926 0 0
-9.17926 0 0
-9.13017 0 0
-9.13017 0 0
-9.08108 0 0
-9.08108 0 0
-9.03199 0 0
-9.03199 0 0
-8.98291 0 0
-8.98291 0 0
-8.93382 0 0
-8.93382 0 0
-8.88473 0 0
-8.88473 0 0
-8.83564 0 0
-8.83564 0 0
-8.78656 0 0
-8.78656 0 0
-8.73747 0 0
-8.73747 0 0
-8.68838 0 0
-8.68838 0 0
-8.6393 0 0
-8.6393 0 0
-8.59021 0 0
-8.59021 0 0
-8.54112 0 0
-8.54112 0 0
-8.49203 0 0
-8.49203 0 0
-8.44295 0 0
-8.44295 0 0
-8.39386 0 0
-8.39386 0 0
-8.34477 0 0
-8.34477 0 0
-8.29568 0 0
-8.29568 0 0
-8.2466 0 0
-8.2466 0 0
-8.19751 0 0
-8.19751 0 0
-8.14842 0 0
-8.14842 0 0
-8.09933 0 0
-8.09933 0 0
-8.05025 0 0
-8.05025 0 0
-8.00116 0 0
-8.00116 0 0
-7.95207 0 0
-7.95207 0 0
-7.90298 0 0
-7.90298 0 0
-7.8539 0 0
-7.8539 0 0
-7.80481 0 0
-7.80481 0 0
-7.75572 0 0
-7.75572 0 0
-7.70663 0 0
-7.70663 0 0
-7.65755 0 0
-7.65755 0 0
-7.60846 0 0
-7.60846 0 0
-7.55937 0 0
-7.55937 0 0
-7.51029 0 0
-7.51029 0 0
-7.4612 0 0
-7.4612 0 0
-7.41211 0 0
-7.41211 0 0
-7.36302 0 0
-7.36302 0 0
-7.31394 0 0
-7.31394 0 0
-7.26485 0 0
-7.26485 0 0
-7.21576 0 0
-7.21576 0 0
-7.16667 0 0
-7.16667 0 0
-7.11759 0 0
-7.11759 0 0
-7.0685 0 0
-7.0685 0 0
-7.01941 0 0
-7.01941 0 0
-6.97032 0 0
-6.97032 0 0
-6.92124 0 0
-6.92124 0 0
-6.87215 0 0
-6.87215 0 0
-6.82306 0 0
-6.82306 0 0
-6.77397 0 0
-6.77397 0 0
-6.72489 0 0
-6.72489 0 0
-6.6758 0 0
-6.6758 0 0
-6.62671 0 0
-6.62671 0 0
-6.57763 0 0
-6.57763 0 0
-6.52854 0 0
-6.52854 0 0
-6.47945 0 0
-6.47945 0 0
-6.43036 0 0
-6.43036 0 0
-6.38128 0 0
-6.38128 0 0
-6.33219 0 0
-6.33219 0 0
-6.2831 0 0
-6.2831 0 0
-6.23401 0 0
-6.23401 0 0
-6.18493 0 0
-6.18493 0 0
-6.13584 0 0
-6.13584 0 0
-6.08675 0 0
-6.08675 0 0
-6.03766 0 0
-6.03766 0 0
-5.98858 0 0
-5.98858 0 0
-5.93949 0 0
-5.93949 0 0
-5.8904 0 0
-5.8904 0 0
-5.84131 0 0
-5.84131 0 0
-5.79223 0 0
-5.79223 0 0
-5.74314 0 0
-5.74314 0 0
-5.69405 0 0
-5.69405 0 0
-5.64497 0 0
-5.64497 0 0
-5.59588 0 0
-5.59588 0 0
-5.54679 0 0
-5.54679 0 0
-5.4977 0 0
-5.4977 0 0
-5.44862 0 0
-5.44862 0 0
-5.39953 0 0
-5.39953 0 0
-5.35044 0 0
-5.35044 0 0
-5.30135 0 0
-5.30135 0 0
-5.25227 0 0
-5.25227 0 0
-5.20318 0 0
-5.20318 0 0
-5.15409 0 0
-5.15409 0 0
-5.105 0 0
-5.105 0 0
-5.05592 0 0
-5.05592 0 0
-5.00683 0 0
-5.00683 0 0
-4.95774 0 0
-4.95774 0 0
-4.90865 0 0
-4.90865 0 0
-4.85957 0 0
-4.85957 0 0
-4.81048 0 0
-4.81048 0 0
-4.76139 0 0
-4.76139 0 0
-4.7123 0 0
-4.7123 0 0
-4.66322 0 0
-4.66322 0 0
-4.61413 0 0
-4.61413 0 0
-4.56504 0 0
-4.56504 0 0
-4.51595 0 0
-4.51595 0 0
-4.46687 0 0
-4.46687 0 0
-4.41778 0 0
-4.41778 0 0
-4.36869 0 0
-4.36869 0 0
-4.31961 0 0
-4.31961 0 0
-4.27052 0 0
-4.27052 0 0
-4.22143 0 0
-4.22143 0 0
-4.17234 0 0
-4.17234 0 0
-4.12326 0 0
-4.12326 0 0
-4.07417 0 0
-4.07417 0 0
-4.02508 0 0
-4.02508 0 0
-3.97599 0 0
-3.97599 0 0
-3.92691 0 0
-3.92691 0 0
-3.87782 0 0
-3.87782 0 0
-3.82873 0 0
-3.82873 0 0
-3.77964 0 0
-3.77964 0 0
-3.73056 0 0
-3.73056 0 0
-3.68147 0 0
-3.68147 0 0
-3.63238 0 0
-3.63238 0 0
-3.58329 0 0
-3.58329 0 0
-3.53421 0 0
-3.53421 0 0
-3.48512 0 0
-3.48512 0 0
-3.43603 0 0
-3.43603 0 0
-3.38695 0 0
-3.38695 0 0
-3.33786 0 0
-3.33786 0 0
-3.28877 0 0
-3.28877 0 0
-3.23968 0 0
-3.23968 0 0
-3.1906 0 0
-3.1906 0 0
-3.14151 0 0
-3.14151 0 0
-3.09242 0 0
-3.09242 0 0
-3.04333 0 0
-3.04333 0 0
-2.99425 0 0
-2.99425 0 0
-2.94516 0 0
-2.94516 0 0
-2.89607 0 0
-2.89607 0 0
-2.84698 0 0
-2.84698 0 0
-2.7979 0 0
-2.7979 0 0
-2.74881 0 0
-2.74881 0 0
-2.69972 0 0
-2.69972 0 0
-2.65063 0 0
-2.65063 0 0
-2.60155 0 0
-2.60155 0 0
-2.55246 0 0
-2.55246 0 0
-2.50337 0 0
-2.50337 0 0
-2.45428 0 0
-2.45428 0 0
-2.4052 0 0
-2.4052 0 0
-2.35611 0 0
-2.35611 0 0
-2.30702 0 0
-2.30702 0 0
-2.25794 0 0
-2.25794 0 0
-2.20885 0 0
-2.20885 0 0
-2.15976 0 0
-2.15976 0 0
-2.11067 0 0
-2.11067 0 0
-2.06159 0 0
-2.06159 0 0
-2.0125 0 0
-2.0125 0 0
-1.96341 0 0
-1.96341 0 0
-1.91432 0 0
-1.91432 0 0
-1.86524 0 0
-1.86524 0 0
-1.81615 0 0
-1.81615 0 0
-1.76706 0 0
-1.76706 0 0
-1.71797 0 0
-1.71797 0 0
-1.66889 0 0
-1.6689 0 0
-1.61981 0 0
-1.61981 0 0
-1.57072 0 0
-1.57072 0 0
-1.52163 0 0
-1.52163 0 0
-1.47255 0 0
-1.47255 0 0
-1.42346 0 0
-1.42346 0 0
-1.37437 0 0
-1.37437 0 0
-1.32528 0 0
-1.32528 0 0
-1.2762 0 0
-1.2762 0 0
-1.22711 0 0
-1.22711 0 0
-1.17802 0 0
-1.17802 0 0
-1.12893 0 0
-1.12893 0 0
-1.07985 0 0
-1.07985 0 0
-1.03076 0 0
-1.03076 0 0
-0.981674 0 0
-0.981674 0 0
-0.932596 0 0
-0.932593 0 0
-0.883506 0 0
-0.883506 0 0
-0.834419 0 0
-0.834417 0 0
-0.785339 0 0
-0.785344 0 0
-0.736258 0 0
-0.736258 0 0
-0.687171 0 0
-0.687171 0 0
-0.638083 0 0
-0.638083 0 0
-0.588996 0 0
-0.588996 0 0
-0.539917 0 0
-0.539915 0 0
-0.490827 0 0
-0.490827 0 0
-0.441742 0 0
-0.441742 0 0
-0.39266 0 0
-0.392659 0 0
-0.34358 0 0
-0.343585 0 0
-0.294497 0 0
-0.294496 0 0
-0.245418 0 0
-0.245422 0 0
-0.196335 0 0
-0.196334 0 0
-0.147261 0 0
-0.147262 0 0
-0.0981748 0 0
-0.0981748 0 0
-0.0490874 0 0
-0.0490874 0 0
3.63798e-12 0 0
SCALARS potential double 1
LOOKUP_TABLE default
0 0.615641 0.615641 1.22887 1.22887 1.8397 1.8397 2.44811 2.44811 3.05411 3.05411 3.6577 3.6577 4.25889 4.25889 4.85766 4.85766 5.45403 5.45403 6.04798 6.04798 6.63953 6.63953 7.22866 7.22866 7.81539 7.81539 8.39971 8.39971 8.98162 8.98162 9.56111 9.56111 10.1382 10.1382 10.7129 10.7129 11.2851 11.2851 11.855 11.855 12.4225 12.4225 12.9875 12.9875 13.5501 13.5501 14.1104 14.1104 14.6682 14.6682 15.2236 15.2236 15.7766 15.7766 16.3271 16.3271 16.8753 16.8753 17.4211 17.4211 17.9644 17.9644 18.5054 18.5054 19.0439 19.0439 19.58 19.58 20.1138 20.1138 20.6451 20.6451 21.174 21.174 21.7004 21.7004 22.2245 22.2245 22.7462 22.7462 23.2654 23.2654 23.7823 23.7823 24.2967 24.2967 24.8088 24.8088 25.3184 25.3184 25.8256 25.8256 26.3304 26.3304 26.8328 26.8328 27.3328 27.3328 27.8303 27.8303 28.3255 28.3255 28.8183 28.8183 29.3086 29.3086 29.7965 29.7965 30.2821 30.2821 30.7652 30.7652 31.2459 31.2459 31.7242 31.7242 32.2001 32.2001 32.6735 32.6735 33.1446 33.1446 33.6133 33.6133 34.0795 34.0795 34.5434 34.5434 35.0048 35.0048 35.4638 35.4638 35.9204 35.9204 36.3746 36.3746 36.8264 36.8264 37.2758 37.2758 37.7228 37.7228 38.1673 38.1673 38.6095 38.6095 39.0492 39.0492 39.4865 39.4865 39.9215 39.9215 40.354 40.354 40.7841 40.7841 41.2118 41.2118 41.6371 41.6371 42.0599 42.0599 42.4804 42.4804 42.8985 42.8985 43.3141 43.3141 43.7273 43.7273 44.1382 44.1382 44.5466 44.5466 44.9526 44.9526 45.3562 45.3562 45.7574 45.7574 46.1562 46.1562 46.5525 46.5525 46.9465 46.9465 47.3381 47.3381 47.7272 47.7272 48.1139 48.1139 48.4982 48.4982 48.8802 48.8802 49.2597 49.2597 49.6368 49.6368 50.0114 50.0114 50.3837 50.3837 50.7536 50.7536 51.121 51.121 51.4861 51.4861 51.8487 51.8487 52.2089 52.2089 52.5668 52.5668 52.9222 52.9222 53.2752 53.2752 53.6258 53.6258 53.9739 53.9739 54.3197 54.3197 54.6631 54.6631 55.004 55.004 55.3426 55.3426 55.6787 55.6787 56.0124 56.0124 56.3437 56.3437 56.6726 56.6726 56.9991 56.9991 57.3232 57.3232 57.6449 57.6449 57.9641 57.9641 58.281 58.281 58.5954 58.5954 58.9075 58.9075 59.2171 59.2171 59.5243 59.5243 59.8291 59.8291 60.1315 60.1315 60.4315 60.4315 60.7291 60.7291 61.0243 61.0243 61.317 61.317 61.6074 61.6074 61.8953 61.8953 62.1808 62.1808 62.4639 62.4639 62.7447 62.7447 63.023 63.023 63.2989 63.2989 63.5723 63.5723 63.8434 63.8434 64.1121 64.1121 64.3783 64.3783 64.6422 64.6422 64.9036 64.9036 65.1626 65.1626 65.4192 65.4192 65.6734 65.6734 65.9252 65.9252 66.1746 66.1746 66.4216 66.4216 66.6662 66.6662 66.9083 66.9083 67.1481 67.1481 67.3854 67.3854 67.6203 67.6203 67.8529 67.8529 68.083 68.083 68.3107 68.3107 68.536 68.536 68.7589 68.7589 68.9793 68.9793 69.1974 69.1974 69.413 69.413 69.6263 69.6263 69.8371 69.8371 70.0455 70.0455 70.2515 70.2515 70.4552 70.4552 70.6563 70.6563 70.8551 70.8551 71.0515 71.0515 71.2455 71.2455 71.437 71.437 71.6262 71.6262 71.8129 71.8129 71.9972 71.9972 72.1792 72.1792 72.3587 72.3587 72.5358 72.5358 72.7105 72.7105 72.8827 72.8827 73.0526 73.0526 73.2201 73.2201 73.3851 73.3851 73.5478 73.5478 73.708 73.708 73.8658 73.8658 74.0212 74.0212 74.1742 74.1742 74.3248 74.3248 74.473 74.473 74.6188 74.6188 74.7622 74.7622 74.9031 74.9031 75.0417 75.0417 75.1778 75.1778 75.3115 75.3115 75.4428 75.4428 75.5718 75.5718 75.6982 75.6982 75.8223 75.8223 75.944 75.944 76.0633 76.0633 76.1801 76.1801 76.2946 76.2946 76.4066 76.4066 76.5163 76.5163 76.6235 76.6235 76.7283 76.7283 76.8307 76.8307 76.9307 76.9307 77.0283 77.0283 77.1235 77.1235 77.2162 77.2162 77.3066 77.3066 77.3945 77.3945 77.4801 77.4801 77.5632 77.5632 77.6439 77.6439 77.7222 77.7222 77.7981 77.7981 77.8716 77.8716 77.9427 77.9427 78.0113 78.0113 78.0776 78.0776 78.1414 78.1414 78.2029 78.2029 78.2619 78.2619 78.3185 78.3185 78.3728 78.3728 78.4246 78.4246 78.474 78.474 78.5209 78.5209 78.5655 78.5655 78.6077 78.6077 78.6474 78.6474 78.6848 78.6848 78.7197 78.7197 78.7522 78.7522 78.7823 78.7823 78.8101 78.8101 78.8354 78.8354 78.8582 78.8582 78.8787 78.8787 78.8968 78.8968 78.9125 78.9125 78.9257 78.9257 78.9366 78.9366 78.945 78.945 78.951 78.951 78.9546 78.9546 78.9558 
SCALARS x_coordinate double 1
LOOKUP_TABLE default
0 0.0490874 0.0490874 0.0981748 0.0981748 0.147262 0.147262 0.19635 0.19635 0.245437 0.245437 0.294524 0.294524 0.343612 0.343612 0.392699 0.392699 0.441786 0.441786 0.490874 0.490874 0.539961 0.539961 0.589049 0.589049 0.638136 0.638136 0.687223 0.687223 0.736311 0.736311 0.785398 0.785398 0.834486 0.834486 0.883573 0.883573 0.93266 0.93266 0.981748 0.981748 1.03084 1.03084 1.07992 1.07992 1.12901 1.12901 1.1781 1.1781 1.22718 1.22718 1.27627 1.27627 1.32536 1.32536 1.37445 1.37445 1.42353 1.42353 1.47262 1.47262 1.52171 1.52171 1.5708 1.5708 1.61988 1.61988 1.66897 1.66897 1.71806 1.71806 1.76715 1.76715 1.81623 1.81623 1.86532 1.86532 1.91441 1.91441 1.9635 1.9635 2.01258 2.01258 2.06167 2.06167 2.11076 2.11076 2.15984 2.15984 2.20893 2.20893 2.25802 2.25802 2.30711 2.30711 2.35619 2.35619 2.40528 2.40528 2.45437 2.45437 2.50346 2.50346 2.55254 2.55254 2.60163 2.60163 2.65072 2.65072 2.69981 2.69981 2.74889 2.74889 2.79798 2.79798 2.84707 2.84707 2.89616 2.89616 2.94524 2.94524 2.99433 2.99433 3.04342 3.04342 3.09251 3.09251 3.14159 3.14159 3.19068 3.19068 3.23977 3.23977 3.28885 3.28885 3.33794 3.33794 3.38703 3.38703 3.43612 3.43612 3.4852 3.4852 3.53429 3.53429 3.58338 3.58338 3.63247 3.63247 3.68155 3.68155 3.73064 3.73064 3.77973 3.77973 3.82882 3.82882 3.8779 3.8779 3.92699 3.92699 3.97608 3.97608 4.02517 4.02517 4.07425 4.07425 4.12334 4.12334 4.17243 4.17243 4.22152 4.22152 4.2706 4.2706 4.31969 4.31969 4.36878 4.36878 4.41786 4.41786 4.46695 4.46695 4.51604 4.51604 4.56513 4.56513 4.61421 4.61421 4.6633 4.6633 4.71239 4.71239 4.76148 4.76148 4.81056 4.81056 4.85965 4.85965 4.90874 4.90874 4.95783 4.95783 5.00691 5.00691 5.056 5.056 5.10509 5.10509 5.15418 5.15418 5.20326 5.20326 5.25235 5.25235 5.30144 5.30144 5.35052 5.35052 5.39961 5.39961 5.4487 5.4487 5.49779 5.49779 5.54687 5.54687 5.59596 5.59596 5.64505 5.64505 5.69414 5.69414 5.74322 5.74322 5.79231 5.79231 5.8414 5.8414 5.89049 5.89049 5.93957 5.93957 5.98866 5.98866 6.03775 6.03775 6.08684 6.08684 6.13592 6.13592 6.18501 6.18501 6.2341 6.2341 6.28319 6.28319 6.33227 6.33227 6.38136 6.38136 6.43045 6.43045 6.47953 6.47953 6.52862 6.52862 6.57771 6.57771 6.6268 6.6268 6.67588 6.67588 6.72497 6.72497 6.77406 6.77406 6.82315 6.82315 6.87223 6.87223 6.92132 6.92132 6.97041 6.97041 7.0195 7.0195 7.06858 7.06858 7.11767 7.11767 7.16676 7.16676 7.21585 7.21585 7.26493 7.26493 7.31402 7.31402 7.36311 7.36311 7.4122 7.4122 7.46128 7.46128 7.51037 7.51037 7.55946 7.55946 7.60854 7.60854 7.65763 7.65763 7.70672 7.70672 7.75581 7.75581 7.80489 7.80489 7.85398 7.85398 7.90307 7.90307 7.95216 7.95216 8.00124 8.00124 8.05033 8.05033 8.09942 8.09942 8.14851 8.14851 8.19759 8.19759 8.24668 8.24668 8.29577 8.29577 8.34486 8.34486 8.39394 8.39394 8.44303 8.44303 8.49212 8.49212 8.54121 8.54121 8.59029 8.59029 8.63938 8.63938 8.68847 8.68847 8.73755 8.73755 8.78664 8.78664 8.83573 8.83573 8.88482 8.88482 8.9339 8.9339 8.98299 8.98299 9.03208 9.03208 9.08117 9.08117 9.13025 9.13025 9.17934 9.17934 9.22843 9.22843 9.27752 9.27752 9.3266 9.3266 9.37569 9.37569 9.42478 9.42478 9.47387 9.47387 9.52295 9.52295 9.57204 9.57204 9.62113 9.62113 9.67021 9.67021 9.7193 9.7193 9.76839 9.76839 9.81748 9.81748 9.86656 9.86656 9.91565 9.91565 9.96474 9.96474 10.0138 10.0138 10.0629 10.0629 10.112 10.112 10.1611 10.1611 10.2102 10.2102 10.2593 10.2593 10.3084 10.3084 10.3574 10.3574 10.4065 10.4065 10.4556 10.4556 10.5047 10.5047 10.5538 10.5538 10.6029 10.6029 10.652 10.652 10.701 10.701 10.7501 10.7501 10.7992 10.7992 10.8483 10.8483 10.8974 10.8974 10.9465 10.9465 10.9956 10.9956 11.0447 11.0447 11.0937 11.0937 11.1428 11.1428 11.1919 11.1919 11.241 11.241 11.2901 11.2901 11.3392 11.3392 11.3883 11.3883 11.4374 11.4374 11.4864 11.4864 11.5355 11.5355 11.5846 11.5846 11.6337 11.6337 11.6828 11.6828 11.7319 11.7319 11.781 11.781 11.8301 11.8301 11.8791 11.8791 11.9282 11.9282 11.9773 11.9773 12.0264 12.0264 12.0755 12.0755 12.1246 12.1246 12.1737 12.1737 12.2228 12.2228 12.2718 12.2718 12.3209 12.3209 12.37 12.37 12.4191 12.4191 12.4682 12.4682 12.5173 12.5173 12.5664 
