# vtk DataFile Version 3.0
#This file was generated by the deal.II library on 2026/3/10 at 19:06:52
ASCII
DATASET UNSTRUCTURED_GRID

POINTS 512 double
0 0 0
0.0490874 0 0
0.0490874 0 0
0.0981748 0 0
0.0981748 0 0
0.147262 0 0
0.147262 0 0
0.19635 0 0
0.19635 0 0
0.245437 0 0
0.245437 0 0
0.294524 0 0
0.294524 0 0
0.343612 0 0
0.343612 0 0
0.392699 0 0
0.392699 0 0
0.441786 0 0
0.441786 0 0
0.490874 0 0
0.490874 0 0
0.539961 0 0
0.539961 0 0
0.589049 0 0
0.589049 0 0
0.638136 0 0
0.638136 0 0
0.687223 0 0
0.687223 0 0
0.736311 0 0
0.736311 0 0
0.785398 0 0
0.785398 0 0
0.834486 0 0
0.834486 0 0
0.883573 0 0
0.883573 0 0
0.93266 0 0
0.93266 0 0
0.981748 0 0
0.981748 0 0
1.03084 0 0
1.03084 0 0
1.07992 0 0
1.07992 0 0
1.12901 0 0
1.12901 0 0
1.1781 0 0
1.1781 0 0
1.22718 0 0
1.22718 0 0
1.27627 0 0
1.27627 0 0
1.32536 0 0
1.32536 0 0
1.37445 0 0
1.37445 0 0
1.42353 0 0
1.42353 0 0
1.47262 0 0
1.47262 0 0
1.52171 0 0
1.52171 0 0
1.5708 0 0
1.5708 0 0
1.61988 0 0
1.61988 0 0
1.66897 0 0
1.66897 0 0
1.71806 0 0
1.71806 0 0
1.76715 0 0
1.76715 0 0
1.81623 0 0
1.81623 0 0
1.86532 0 0
1.86532 0 0
1.91441 0 0
1.91441 0 0
1.9635 0 0
1.9635 0 0
2.01258 0 0
2.01258 0 0
2.06167 0 0
2.06167 0 0
2.11076 0 0
2.11076 0 0
2.15984 0 0
2.15984 0 0
2.20893 0 0
2.20893 0 0
2.25802 0 0
2.25802 0 0
2.30711 0 0
2.30711 0 0
2.35619 0 0
2.35619 0 0
2.40528 0 0
2.40528 0 0
2.45437 0 0
2.45437 0 0
2.50346 0 0
2.50346 0 0
2.55254 0 0
2.55254 0 0
2.60163 0 0
2.60163 0 0
2.65072 0 0
2.65072 0 0
2.69981 0 0
2.69981 0 0
2.74889 0 0
2.74889 0 0
2.79798 0 0
2.79798 0 0
2.84707 0 0
2.84707 0 0
2.89616 0 0
2.89616 0 0
2.94524 0 0
2.94524 0 0
2.99433 0 0
2.99433 0 0
3.04342 0 0
3.04342 0 0
3.09251 0 0
3.09251 0 0
3.14159 0 0
3.14159 0 0
3.19068 0 0
3.19068 0 0
3.23977 0 0
3.23977 0 0
3.28885 0 0
3.28885 0 0
3.33794 0 0
3.33794 0 0
3.38703 0 0
3.38703 0 0
3.43612 0 0
3.43612 0 0
3.4852 0 0
3.4852 0 0
3.53429 0 0
3.53429 0 0
3.58338 0 0
3.58338 0 0
3.63247 0 0
3.63247 0 0
3.68155 0 0
3.68155 0 0
3.73064 0 0
3.73064 0 0
3.77973 0 0
3.77973 0 0
3.82882 0 0
3.82882 0 0
3.8779 0 0
3.8779 0 0
3.92699 0 0
3.92699 0 0
3.97608 0 0
3.97608 0 0
4.02517 0 0
4.02517 0 0
4.07425 0 0
4.07425 0 0
4.12334 0 0
4.12334 0 0
4.17243 0 0
4.17243 0 0
4.22152 0 0
4.22152 0 0
4.2706 0 0
4.2706 0 0
4.31969 0 0
4.31969 0 0
4.36878 0 0
4.36878 0 0
4.41786 0 0
4.41786 0 0
4.46695 0 0
4.46695 0 0
4.51604 0 0
4.51604 0 0
4.56513 0 0
4.56513 0 0
4.61421 0 0
4.61421 0 0
4.6633 0 0
4.6633 0 0
4.71239 0 0
4.71239 0 0
4.76148 0 0
4.76148 0 0
4.81056 0 0
4.81056 0 0
4.85965 0 0
4.85965 0 0
4.90874 0 0
4.90874 0 0
4.95783 0 0
4.95783 0 0
5.00691 0 0
5.00691 0 0
5.056 0 0
5.056 0 0
5.10509 0 0
5.10509 0 0
5.15418 0 0
5.15418 0 0
5.20326 0 0
5.20326 0 0
5.25235 0 0
5.25235 0 0
5.30144 0 0
5.30144 0 0
5.35052 0 0
5.35052 0 0
5.39961 0 0
5.39961 0 0
5.4487 0 0
5.4487 0 0
5.49779 0 0
5.49779 0 0
5.54687 0 0
5.54687 0 0
5.59596 0 0
5.59596 0 0
5.64505 0 0
5.64505 0 0
5.69414 0 0
5.69414 0 0
5.74322 0 0
5.74322 0 0
5.79231 0 0
5.79231 0 0
5.8414 0 0
5.8414 0 0
5.89049 0 0
5.89049 0 0
5.93957 0 0
5.93957 0 0
5.98866 0 0
5.98866 0 0
6.03775 0 0
6.03775 0 0
6.08684 0 0
6.08684 0 0
6.13592 0 0
6.13592 0 0
6.18501 0 0
6.18501 0 0
6.2341 0 0
6.2341 0 0
6.28319 0 0
6.28319 0 0
6.33227 0 0
6.33227 0 0
6.38136 0 0
6.38136 0 0
6.43045 0 0
6.43045 0 0
6.47953 0 0
6.47953 0 0
6.52862 0 0
6.52862 0 0
6.57771 0 0
6.57771 0 0
6.6268 0 0
6.6268 0 0
6.67588 0 0
6.67588 0 0
6.72497 0 0
6.72497 0 0
6.77406 0 0
6.77406 0 0
6.82315 0 0
6.82315 0 0
6.87223 0 0
6.87223 0 0
6.92132 0 0
6.92132 0 0
6.97041 0 0
6.97041 0 0
7.0195 0 0
7.0195 0 0
7.06858 0 0
7.06858 0 0
7.11767 0 0
7.11767 0 0
7.16676 0 0
7.16676 0 0
7.21585 0 0
7.21585 0 0
7.26493 0 0
7.26493 0 0
7.31402 0 0
7.31402 0 0
7.36311 0 0
7.36311 0 0
7.4122 0 0
7.4122 0 0
7.46128 0 0
7.46128 0 0
7.51037 0 0
7.51037 0 0
7.55946 0 0
7.55946 0 0
7.60854 0 0
7.60854 0 0
7.65763 0 0
7.65763 0 0
7.70672 0 0
7.70672 0 0
7.75581 0 0
7.75581 0 0
7.80489 0 0
7.80489 0 0
7.85398 0 0
7.85398 0 0
7.90307 0 0
7.90307 0 0
7.95216 0 0
7.95216 0 0
8.00124 0 0
8.00124 0 0
8.05033 0 0
8.05033 0 0
8.09942 0 0
8.09942 0 0
8.14851 0 0
8.14851 0 0
8.19759 0 0
8.19759 0 0
8.24668 0 0
8.24668 0 0
8.29577 0 0
8.29577 0 0
8.34486 0 0
8.34486 0 0
8.39394 0 0
8.39394 0 0
8.44303 0 0
8.44303 0 0
8.49212 0 0
8.49212 0 0
8.54121 0 0
8.54121 0 0
8.59029 0 0
8.59029 0 0
8.63938 0 0
8.63938 0 0
8.68847 0 0
8.68847 0 0
8.73755 0 0
8.73755 0 0
8.78664 0 0
8.78664 0 0
8.83573 0 0
8.83573 0 0
8.88482 0 0
8.88482 0 0
8.9339 0 0
8.9339 0 0
8.98299 0 0
8.98299 0 0
9.03208 0 0
9.03208 0 0
9.08117 0 0
9.08117 0 0
9.13025 0 0
9.13025 0 0
9.17934 0 0
9.17934 0 0
9.22843 0 0
9.22843 0 0
9.27752 0 0
9.27752 0 0
9.3266 0 0
9.3266 0 0
9.37569 0 0
9.37569 0 0
9.42478 0 0
9.42478 0 0
9.47387 0 0
9.47387 0 0
9.52295 0 0
9.52295 0 0
9.57204 0 0
9.57204 0 0
9.62113 0 0
9.62113 0 0
9.67021 0 0
9.67021 0 0
9.7193 0 0
9.7193 0 0
9.76839 0 0
9.76839 0 0
9.81748 0 0
9.81748 0 0
9.86656 0 0
9.86656 0 0
9.91565 0 0
9.91565 0 0
9.96474 0 0
9.96474 0 0
10.0138 0 0
10.0138 0 0
10.0629 0 0
10.0629 0 0
10.112 0 0
10.112 0 0
10.1611 0 0
10.1611 0 0
10.2102 0 0
10.2102 0 0
10.2593 0 0
10.2593 0 0
10.3084 0 0
10.3084 0 0
10.3574 0 0
10.3574 0 0
10.4065 0 0
10.4065 0 0
10.4556 0 0
10.4556 0 0
10.5047 0 0
10.5047 0 0
10.5538 0 0
10.5538 0 0
10.6029 0 0
10.6029 0 0
10.652 0 0
10.652 0 0
10.701 0 0
10.701 0 0
10.7501 0 0
10.7501 0 0
10.7992 0 0
10.7992 0 0
10.8483 0 0
10.8483 0 0
10.8974 0 0
10.8974 0 0
10.9465 0 0
10.9465 0 0
10.9956 0 0
10.9956 0 0
11.0447 0 0
11.0447 0 0
11.0937 0 0
11.0937 0 0
11.1428 0 0
11.1428 0 0
11.1919 0 0
11.1919 0 0
11.241 0 0
11.241 0 0
11.2901 0 0
11.2901 0 0
11.3392 0 0
11.3392 0 0
11.3883 0 0
11.3883 0 0
11.4374 0 0
11.4374 0 0
11.4864 0 0
11.4864 0 0
11.5355 0 0
11.5355 0 0
11.5846 0 0
11.5846 0 0
11.6337 0 0
11.6337 0 0
11.6828 0 0
11.6828 0 0
11.7319 0 0
11.7319 0 0
11.781 0 0
11.781 0 0
11.8301 0 0
11.8301 0 0
11.8791 0 0
11.8791 0 0
11.9282 0 0
11.9282 0 0
11.9773 0 0
11.9773 0 0
12.0264 0 0
12.0264 0 0
12.0755 0 0
12.0755 0 0
12.1246 0 0
12.1246 0 0
12.1737 0 0
12.1737 0 0
12.2228 0 0
12.2228 0 0
12.2718 0 0
12.2718 0 0
12.3209 0 0
12.3209 0 0
12.37 0 0
12.37 0 0
12.4191 0 0
12.4191 0 0
12.4682 0 0
12.4682 0 0
12.5173 0 0
12.5173 0 0
12.5664 0 0

CELLS 256 768
2	0	1
2	2	3
2	4	5
2	6	7
2	8	9
2	10	11
2	12	13
2	14	15
2	16	17
2	18	19
2	20	21
2	22	23
2	24	25
2	26	27
2	28	29
2	30	31
2	32	33
2	34	35
2	36	37
2	38	39
2	40	41
2	42	43
2	44	45
2	46	47
2	48	49
2	50	51
2	52	53
2	54	55
2	56	57
2	58	59
2	60	61
2	62	63
2	64	65
2	66	67
2	68	69
2	70	71
2	72	73
2	74	75
2	76	77
2	78	79
2	80	81
2	82	83
2	84	85
2	86	87
2	88	89
2	90	91
2	92	93
2	94	95
2	96	97
2	98	99
2	100	101
2	102	103
2	104	105
2	106	107
2	108	109
2	110	111
2	112	113
2	114	115
2	116	117
2	118	119
2	120	121
2	122	123
2	124	125
2	126	127
2	128	129
2	130	131
2	132	133
2	134	135
2	136	137
2	138	139
2	140	141
2	142	143
2	144	145
2	146	147
2	148	149
2	150	151
2	152	153
2	154	155
2	156	157
2	158	159
2	160	161
2	162	163
2	164	165
2	166	167
2	168	169
2	170	171
2	172	173
2	174	175
2	176	177
2	178	179
2	180	181
2	182	183
2	184	185
2	186	187
2	188	189
2	190	191
2	192	193
2	194	195
2	196	197
2	198	199
2	200	201
2	202	203
2	204	205
2	206	207
2	208	209
2	210	211
2	212	213
2	214	215
2	216	217
2	218	219
2	220	221
2	222	223
2	224	225
2	226	227
2	228	229
2	230	231
2	232	233
2	234	235
2	236	237
2	238	239
2	240	241
2	242	243
2	244	245
2	246	247
2	248	249
2	250	251
2	252	253
2	254	255
2	256	257
2	258	259
2	260	261
2	262	263
2	264	265
2	266	267
2	268	269
2	270	271
2	272	273
2	274	275
2	276	277
2	278	279
2	280	281
2	282	283
2	284	285
2	286	287
2	288	289
2	290	291
2	292	293
2	294	295
2	296	297
2	298	299
2	300	301
2	302	303
2	304	305
2	306	307
2	308	309
2	310	311
2	312	313
2	314	315
2	316	317
2	318	319
2	320	321
2	322	323
2	324	325
2	326	327
2	328	329
2	330	331
2	332	333
2	334	335
2	336	337
2	338	339
2	340	341
2	342	343
2	344	345
2	346	347
2	348	349
2	350	351
2	352	353
2	354	355
2	356	357
2	358	359
2	360	361
2	362	363
2	364	365
2	366	367
2	368	369
2	370	371
2	372	373
2	374	375
2	376	377
2	378	379
2	380	381
2	382	383
2	384	385
2	386	387
2	388	389
2	390	391
2	392	393
2	394	395
2	396	397
2	398	399
2	400	401
2	402	403
2	404	405
2	406	407
2	408	409
2	410	411
2	412	413
2	414	415
2	416	417
2	418	419
2	420	421
2	422	423
2	424	425
2	426	427
2	428	429
2	430	431
2	432	433
2	434	435
2	436	437
2	438	439
2	440	441
2	442	443
2	444	445
2	446	447
2	448	449
2	450	451
2	452	453
2	454	455
2	456	457
2	458	459
2	460	461
2	462	463
2	464	465
2	466	467
2	468	469
2	470	471
2	472	473
2	474	475
2	476	477
2	478	479
2	480	481
2	482	483
2	484	485
2	486	487
2	488	489
2	490	491
2	492	493
2	494	495
2	496	497
2	498	499
2	500	501
2	502	503
2	504	505
2	506	507
2	508	509
2	510	511

CELL_TYPES 256
 3 3 3 3 3 3 3 3 3 3 3 3 3 3 3 3 3 3 3 3 3 3 3 3 3 3 3 3 3 3 3 3 3 3 3 3 3 3 3 3 3 3 3 3 3 3 3 3 3 3 3 3 3 3 3 3 3 3 3 3 3 3 3 3 3 3 3 3 3 3 3 3 3 3 3 3 3 3 3 3 3 3 3 3 3 3 3 3 3 3 3 3 3 3 3 3 3 3 3 3 3 3 3 3 3 3 3 3 3 3 3 3 3 3 3 3 3 3 3 3 3 3 3 3 3 3 3 3 3 3 3 3 3 3 3 3 3 3 3 3 3 3 3 3 3 3 3 3 3 3 3 3 3 3 3 3 3 3 3 3 3 3 3 3 3 3 3 3 3 3 3 3 3 3 3 3 3 3 3 3 3 3 3 3 3 3 3 3 3 3 3 3 3 3 3 3 3 3 3 3 3 3 3 3 3 3 3 3 3 3 3 3 3 3 3 3 3 3 3 3 3 3 3 3 3 3 3 3 3 3 3 3 3 3 3 3 3 3 3 3 3 3 3 3 3 3 3 3 3 3 3 3 3 3 3 3
POINT_DATA 512
VECTORS electric_field double
-12.3245 0 0
-12.2754 0 0
-12.2754 0 0
-12.2263 0 0
-12.2263 0 0
-12.1772 0 0
-12.1772 0 0
-12.1281 0 0
-12.1281 0 0
-12.079 0 0
-12.079 0 0
-12.03 0 0
-12.03 0 0
-11.9809 0 0
-11.9809 0 0
-11.9318 0 0
-11.9318 0 0
-11.8827 0 0
-11.8827 0 0
-11.8336 0 0
-11.8336 0 0
-11.7845 0 0
-11.7845 0 0
-11.7354 0 0
-11.7354 0 0
-11.6863 0 0
-11.6863 0 0
-11.6373 0 0
-11.6373 0 0
-11.5882 0 0
-11.5882 0 0
-11.5391 0 0
-11.5391 0 0
-11.49 0 0
-11.49 0 0
-11.4409 0 0
-11.4409 0 0
-11.3918 0 0
-11.3918 0 0
-11.3427 0 0
-11.3427 0 0
-11.2936 0 0
-11.2936 0 0
-11.2446 0 0
-11.2446 0 0
-11.1955 0 0
-11.1955 0 0
-11.1464 0 0
-11.1464 0 0
-11.0973 0 0
-11.0973 0 0
-11.0482 0 0
-11.0482 0 0
-10.9991 0 0
-10.9991 0 0
-10.95 0 0
-10.95 0 0
-10.9009 0 0
-10.9009 0 0
-10.8519 0 0
-10.8519 0 0
-10.8028 0 0
-10.8028 0 0
-10.7537 0 0
-10.7537 0 0
-10.7046 0 0
-10.7046 0 0
-10.6555 0 0
-10.6555 0 0
-10.6064 0 0
-10.6064 0 0
-10.5573 0 0
-10.5573 0 0
-10.5082 0 0
-10.5082 0 0
-10.4592 0 0
-10.4592 0 0
-10.4101 0 0
-10.4101 0 0
-10.361 0 0
-10.361 0 0
-10.3119 0 0
-10.3119 0 0
-10.2628 0 0
-10.2628 0 0
-10.2137 0 0
-10.2137 0 0
-10.1646 0 0
-10.1646 0 0
-10.1155 0 0
-10.1155 0 0
-10.0665 0 0
-10.0665 0 0
-10.0174 0 0
-10.0174 0 0
-9.96828 0 0
-9.96828 0 0
-9.91919 0 0
-9.91919 0 0
-9.87011 0 0
-9.87011 0 0
-9.82102 0 0
-9.82102 0 0
-9.77193 0 0
-9.77193 0 0
-9.72284 0 0
-9.72284 0 0
-9.67376 0 0
-9.67376 0 0
-9.62467 0 0
-9.62467 0 0
-9.57558 0 0
-9.57558 0 0
-9.52649 0 0
-9.52649 0 0
-9.47741 0 0
-9.47741 0 0
-9.42832 0 0
-9.42832 0 0
-9.37923 0 0
-9.37923 0 0
-9.33014 0 0
-9.33014 0 0
-9.28106 0 0
-9.28106 0 0
-9.23197 0 0
-9.23197 0 0
-9.18288 0 0
-9.18288 0 0
-9.13379 0 0
-9.13379 0 0
-9.08471 0 0
-9.08471 0 0
-9.03562 0 0
-9.03562 0 0
-8.98653 0 0
-8.98653 0 0
-8.93745 0 0
-8.93745 0 0
-8.88836 0 0
-8.88836 0 0
-8.83927 0 0
-8.83927 0 0
-8.79018 0 0
-8.79018 0 0
-8.7411 0 0
-8.7411 0 0
-8.69201 0 0
-8.69201 0 0
-8.64292 0 0
-8.64292 0 0
-8.59383 0 0
-8.59383 0 0
-8.54475 0 0
-8.54475 0 0
-8.49566 0 0
-8.49566 0 0
-8.44657 0 0
-8.44657 0 0
-8.39748 0 0
-8.39748 0 0
-8.3484 0 0
-8.3484 0 0
-8.29931 0 0
-8.29931 0 0
-8.25022 0 0
-8.25022 0 0
-8.20113 0 0
-8.20113 0 0
-8.15205 0 0
-8.15205 0 0
-8.10296 0 0
-8.10296 0 0
-8.05387 0 0
-8.05387 0 0
-8.00479 0 0
-8.00479 0 0
-7.9557 0 0
-7.9557 0 0
-7.90661 0 0
-7.90661 0 0
-7.85752 0 0
-7.85752 0 0
-7.80844 0 0
-7.80844 0 0
-7.75935 0 0
-7.75935 0 0
-7.71026 0 0
-7.71026 0 0
-7.66117 0 0
-7.66117 0 0
-7.61209 0 0
-7.61209 0 0
-7.563 0 0
-7.563 0 0
-7.51391 0 0
-7.51391 0 0
-7.46482 0 0
-7.46482 0 0
-7.41574 0 0
-7.41574 0 0
-7.36665 0 0
-7.36665 0 0
-7.31756 0 0
-7.31756 0 0
-7.26847 0 0
-7.26847 0 0
-7.21939 0 0
-7.21939 0 0
-7.1703 0 0
-7.1703 0 0
-7.12121 0 0
-7.12121 0 0
-7.07212 0 0
-7.07212 0 0
-7.02304 0 0
-7.02304 0 0
-6.97395 0 0
-6.97395 0 0
-6.92486 0 0
-6.92486 0 0
-6.87578 0 0
-6.87578 0 0
-6.82669 0 0
-6.82669 0 0
-6.7776 0 0
-6.7776 0 0
-6.72851 0 0
-6.72851 0 0
-6.67943 0 0
-6.67943 0 0
-6.63034 0 0
-6.63034 0 0
-6.58125 0 0
-6.58125 0 0
-6.53216 0 0
-6.53216 0 0
-6.48308 0 0
-6.48308 0 0
-6.43399 0 0
-6.43399 0 0
-6.3849 0 0
-6.3849 0 0
-6.33581 0 0
-6.33581 0 0
-6.28673 0 0
-6.28673 0 0
-6.23764 0 0
-6.23764 0 0
-6.18855 0 0
-6.18855 0 0
-6.13946 0 0
-6.13946 0 0
-6.09038 0 0
-6.09038 0 0
-6.04129 0 0
-6.04129 0 0
-5.9922 0 0
-5.9922 0 0
-5.94311 0 0
-5.94311 0 0
-5.89403 0 0
-5.89403 0 0
-5.84494 0 0
-5.84494 0 0
-5.79585 0 0
-5.79585 0 0
-5.74677 0 0
-5.74677 0 0
-5.69768 0 0
-5.69768 0 0
-5.64859 0 0
-5.64859 0 0
-5.5995 0 0
-5.5995 0 0
-5.55042 0 0
-5.55042 0 0
-5.50133 0 0
-5.50133 0 0
-5.45224 0 0
-5.45224 0 0
-5.40315 0 0
-5.40315 0 0
-5.35407 0 0
-5.35407 0 0
-5.30498 0 0
-5.30498 0 0
-5.25589 0 0
-5.25589 0 0
-5.2068 0 0
-5.2068 0 0
-5.15772 0 0
-5.15772 0 0
-5.10863 0 0
-5.10863 0 0
-5.05954 0 0
-5.05954 0 0
-5.01045 0 0
-5.01045 0 0
-4.96137 0 0
-4.96137 0 0
-4.91228 0 0
-4.91228 0 0
-4.86319 0 0
-4.86319 0 0
-4.81411 0 0
-4.81411 0 0
-4.76502 0 0
-4.76502 0 0
-4.71593 0 0
-4.71593 0 0
-4.66684 0 0
-4.66684 0 0
-4.61776 0 0
-4.61776 0 0
-4.56867 0 0
-4.56867 0 0
-4.51958 0 0
-4.51958 0 0
-4.47049 0 0
-4.47049 0 0
-4.42141 0 0
-4.42141 0 0
-4.37232 0 0
-4.37232 0 0
-4.32323 0 0
-4.32323 0 0
-4.27414 0 0
-4.27414 0 0
-4.22506 0 0
-4.22506 0 0
-4.17597 0 0
-4.17597 0 0
-4.12688 0 0
-4.12688 0 0
-4.07779 0 0
-4.07779 0 0
-4.02871 0 0
-4.02871 0 0
-3.97962 0 0
-3.97962 0 0
-3.93053 0 0
-3.93053 0 0
-3.88144 0 0
-3.88144 0 0
-3.83236 0 0
-3.83236 0 0
-3.78327 0 0
-3.78327 0 0
-3.73418 0 0
-3.73418 0 0
-3.6851 0 0
-3.6851 0 0
-3.63601 0 0
-3.63601 0 0
-3.58692 0 0
-3.58692 0 0
-3.53783 0 0
-3.53783 0 0
-3.48875 0 0
-3.48875 0 0
-3.43966 0 0
-3.43966 0 0
-3.39057 0 0
-3.39057 0 0
-3.34148 0 0
-3.34148 0 0
-3.2924 0 0
-3.2924 0 0
-3.24331 0 0
-3.24331 0 0
-3.19422 0 0
-3.19422 0 0
-3.14513 0 0
-3.14513 0 0
-3.09605 0 0
-3.09605 0 0
-3.04696 0 0
-3.04696 0 0
-2.99787 0 0
-2.99787 0 0
-2.94878 0 0
-2.94878 0 0
-2.8997 0 0
-2.8997 0 0
-2.85061 0 0
-2.85061 0 0
-2.80152 0 0
-2.80152 0 0
-2.75243 0 0
-2.75243 0 0
-2.70335 0 0
-2.70335 0 0
-2.65426 0 0
-2.65426 0 0
-2.60517 0 0
-2.60517 0 0
-2.55609 0 0
-2.55609 0 0
-2.507 0 0
-2.507 0 0
-2.45791 0 0
-2.45791 0 0
-2.40882 0 0
-2.40883 0 0
-2.35975 0 0
-2.35974 0 0
-2.31066 0 0
-2.31066 0 0
-2.26157 0 0
-2.26157 0 0
-2.21248 0 0
-2.21248 0 0
-2.16339 0 0
-2.16339 0 0
-2.11431 0 0
-2.11431 0 0
-2.06533 0 0
-2.0653 0 0
-2.01621 0 0
-2.01621 0 0
-1.96712 0 0
-1.96712 0 0
-1.91804 0 0
-1.91804 0 0
-1.86895 0 0
-1.86895 0 0
-1.81986 0 0
-1.81986 0 0
-1.77077 0 0
-1.77077 0 0
-1.72169 0 0
-1.72169 0 0
-1.6726 0 0
-1.6726 0 0
-1.62351 0 0
-1.62351 0 0
-1.57442 0 0
-1.57442 0 0
-1.52534 0 0
-1.52534 0 0
-1.47625 0 0
-1.47625 0 0
-1.4272 0 0
-1.4272 0 0
-1.37815 0 0
-1.37812 0 0
-1.32914 0 0
-1.32914 0 0
-1.28006 0 0
-1.28005 0 0
-1.23098 0 0
-1.23098 0 0
-1.18191 0 0
-1.18191 0 0
-1.13284 0 0
-1.13284 0 0
-1.0838 0 0
-1.08382 0 0
-1.03479 0 0
-1.03474 0 0
-0.985875 0 0
-0.985883 0 0
-0.936964 0 0
-0.93697 0 0
-0.888226 0 0
-0.888263 0 0
-0.839814 0 0
-0.839856 0 0
-0.792068 0 0
-0.792058 0 0
-0.744865 0 0
-0.744718 0 0
-0.698188 0 0
-0.6982 0 0
-0.65294 0 0
-0.65292 0 0
-0.609009 0 0
-0.608975 0 0
-0.565982 0 0
-0.565881 0 0
-0.523768 0 0
-0.523763 0 0
-0.483075 0 0
-0.48319 0 0
-0.443668 0 0
-0.443724 0 0
-0.40542 0 0
-0.405419 0 0
-0.36879 0 0
-0.368825 0 0
-0.333467 0 0
-0.333371 0 0
-0.299939 0 0
-0.299911 0 0
-0.267659 0 0
-0.267753 0 0
-0.236615 0 0
-0.236525 0 0
-0.2066 0 0
-0.206603 0 0
-0.178152 0 0
-0.178167 0 0
-0.150564 0 0
-0.150551 0 0
-0.123777 0 0
-0.1237 0 0
-0.0981748 0 0
-0.0981748 0 0
-0.0490874 0 0
-0.0490874 0 0
-1.09139e-11 0 0
SCALARS potential double 1
LOOKUP_TABLE default
0 0.603771 0.603771 1.20513 1.20513 1.80409 1.80409 2.40063 2.40063 2.99476 2.99476 3.58649 3.58649 4.1758 4.1758 4.7627 4.7627 5.3472 5.3472 5.92928 5.92928 6.50896 6.50896 7.08623 7.08623 7.66108 7.66108 8.23353 8.23353 8.80357 8.80357 9.37119 9.37119 9.93641 9.93641 10.4992 10.4992 11.0596 11.0596 11.6176 11.6176 12.1732 12.1732 12.7264 12.7264 13.2771 13.2771 13.8255 13.8255 14.3714 14.3714 14.9149 14.9149 15.4561 15.4561 15.9948 15.9948 16.5311 16.5311 17.065 17.065 17.5965 17.5965 18.1255 18.1255 18.6522 18.6522 19.1765 19.1765 19.6983 19.6983 20.2177 20.2177 20.7348 20.7348 21.2494 21.2494 21.7616 21.7616 22.2714 22.2714 22.7788 22.7788 23.2838 23.2838 23.7863 23.7863 24.2865 24.2865 24.7842 24.7842 25.2796 25.2796 25.7725 25.7725 26.263 26.263 26.7511 26.7511 27.2368 27.2368 27.7201 27.7201 28.201 28.201 28.6795 28.6795 29.1556 29.1556 29.6292 29.6292 30.1005 30.1005 30.5693 30.5693 31.0357 31.0357 31.4997 31.4997 31.9613 31.9613 32.4205 32.4205 32.8773 32.8773 33.3317 33.3317 33.7837 33.7837 34.2332 34.2332 34.6804 34.6804 35.1251 35.1251 35.5675 35.5675 36.0074 36.0074 36.4449 36.4449 36.88 36.88 37.3127 37.3127 37.743 37.743 38.1708 38.1708 38.5963 38.5963 39.0194 39.0194 39.44 39.44 39.8582 39.8582 40.2741 40.2741 40.6875 40.6875 41.0985 41.0985 41.5071 41.5071 41.9133 41.9133 42.317 42.317 42.7184 42.7184 43.1174 43.1174 43.5139 43.5139 43.9081 43.9081 44.2998 44.2998 44.6891 44.6891 45.076 45.076 45.4605 45.4605 45.8426 45.8426 46.2223 46.2223 46.5996 46.5996 46.9744 46.9744 47.3469 47.3469 47.7169 47.7169 48.0845 48.0845 48.4498 48.4498 48.8126 48.8126 49.173 49.173 49.531 49.531 49.8866 49.8866 50.2397 50.2397 50.5905 50.5905 50.9389 50.9389 51.2848 51.2848 51.6284 51.6284 51.9695 51.9695 52.3082 52.3082 52.6445 52.6445 52.9784 52.9784 53.3099 53.3099 53.639 53.639 53.9656 53.9656 54.2899 54.2899 54.6118 54.6118 54.9312 54.9312 55.2482 55.2482 55.5629 55.5629 55.8751 55.8751 56.1849 56.1849 56.4923 56.4923 56.7973 56.7973 57.0998 57.0998 57.4 57.4 57.6978 57.6978 57.9931 57.9931 58.286 58.286 58.5766 58.5766 58.8647 58.8647 59.1504 59.1504 59.4337 59.4337 59.7146 59.7146 59.9931 59.9931 60.2691 60.2691 60.5428 60.5428 60.814 60.814 61.0829 61.0829 61.3493 61.3493 61.6133 61.6133 61.8749 61.8749 62.1341 62.1341 62.3909 62.3909 62.6453 62.6453 62.8973 62.8973 63.1469 63.1469 63.394 63.394 63.6388 63.6388 63.8811 63.8811 64.121 64.121 64.3585 64.3585 64.5936 64.5936 64.8263 64.8263 65.0566 65.0566 65.2845 65.2845 65.51 65.51 65.733 65.733 65.9537 65.9537 66.1719 66.1719 66.3878 66.3878 66.6012 66.6012 66.8122 66.8122 67.0208 67.0208 67.227 67.227 67.4308 67.4308 67.6321 67.6321 67.8311 67.8311 68.0277 68.0277 68.2218 68.2218 68.4135 68.4135 68.6029 68.6029 68.7898 68.7898 68.9743 68.9743 69.1564 69.1564 69.3361 69.3361 69.5133 69.5133 69.6882 69.6882 69.8607 69.8607 70.0307 70.0307 70.1984 70.1984 70.3636 70.3636 70.5264 70.5264 70.6868 70.6868 70.8448 70.8448 71.0004 71.0004 71.1536 71.1536 71.3044 71.3044 71.4527 71.4527 71.5987 71.5987 71.7422 71.7422 71.8834 71.8834 72.0221 72.0221 72.1584 72.1584 72.2923 72.2923 72.4238 72.4238 72.5529 72.5529 72.6796 72.6796 72.8038 72.8038 72.9257 72.9257 73.0451 73.0451 73.1622 73.1622 73.2768 73.2768 73.389 73.389 73.4988 73.4988 73.6062 73.6062 73.7112 73.7112 73.8138 73.8138 73.914 73.914 74.0117 74.0117 74.1071 74.1071 74.2 74.2 74.2906 74.2906 74.3787 74.3787 74.4644 74.4644 74.5477 74.5477 74.6286 74.6286 74.7071 74.7071 74.7832 74.7832 74.8569 74.8569 74.9281 74.9281 74.997 74.997 75.0634 75.0634 75.1275 75.1275 75.1891 75.1891 75.2483 75.2483 75.3051 75.3051 75.3595 75.3595 75.4115 75.4115 75.4611 75.4611 75.5083 75.5083 75.5531 75.5531 75.5955 75.5955 75.6356 75.6356 75.6733 75.6733 75.7087 75.7087 75.7419 75.7419 75.7728 75.7728 75.8017 75.8017 75.8284 75.8284 75.8531 75.8531 75.8759 75.8759 75.8967 75.8967 75.9157 75.9157 75.9329 75.9329 75.9485 75.9485 75.9624 75.9624 75.9748 75.9748 75.9856 75.9856 75.9951 75.9951 76.0032 76.0032 76.0099 76.0099 76.0153 76.0153 76.019 76.019 76.0202 
SCALARS x_coordinate double 1
LOOKUP_TABLE default
0 0.0490874 0.0490874 0.0981748 0.0981748 0.147262 0.147262 0.19635 0.19635 0.245437 0.245437 0.294524 0.294524 0.343612 0.343612 0.392699 0.392699 0.441786 0.441786 0.490874 0.490874 0.539961 0.539961 0.589049 0.589049 0.638136 0.638136 0.687223 0.687223 0.736311 0.736311 0.785398 0.785398 0.834486 0.834486 0.883573 0.883573 0.93266 0.93266 0.981748 0.981748 1.03084 1.03084 1.07992 1.07992 1.12901 1.12901 1.1781 1.1781 1.22718 1.22718 1.27627 1.27627 1.32536 1.32536 1.37445 1.37445 1.42353 1.42353 1.47262 1.47262 1.52171 1.52171 1.5708 1.5708 1.61988 1.61988 1.66897 1.66897 1.71806 1.71806 1.76715 1.76715 1.81623 1.81623 1.86532 1.86532 1.91441 1.91441 1.9635 1.9635 2.01258 2.01258 2.06167 2.06167 2.11076 2.11076 2.15984 2.15984 2.20893 2.20893 2.25802 2.25802 2.30711 2.30711 2.35619 2.35619 2.40528 2.40528 2.45437 2.45437 2.50346 2.50346 2.55254 2.55254 2.60163 2.60163 2.65072 2.65072 2.69981 2.69981 2.74889 2.74889 2.79798 2.79798 2.84707 2.84707 2.89616 2.89616 2.94524 2.94524 2.99433 2.99433 3.04342 3.04342 3.09251 3.09251 3.14159 3.14159 3.19068 3.19068 3.23977 3.23977 3.28885 3.28885 3.33794 3.33794 3.38703 3.38703 3.43612 3.43612 3.4852 3.4852 3.53429 3.53429 3.58338 3.58338 3.63247 3.63247 3.68155 3.68155 3.73064 3.73064 3.77973 3.77973 3.82882 3.82882 3.8779 3.8779 3.92699 3.92699 3.97608 3.97608 4.02517 4.02517 4.07425 4.07425 4.12334 4.12334 4.17243 4.17243 4.22152 4.22152 4.2706 4.2706 4.31969 4.31969 4.36878 4.36878 4.41786 4.41786 4.46695 4.46695 4.51604 4.51604 4.56513 4.56513 4.61421 4.61421 4.6633 4.6633 4.71239 4.71239 4.76148 4.76148 4.81056 4.81056 4.85965 4.85965 4.90874 4.90874 4.95783 4.95783 5.00691 5.00691 5.056 5.056 5.10509 5.10509 5.15418 5.15418 5.20326 5.20326 5.25235 5.25235 5.30144 5.30144 5.35052 5.35052 5.39961 5.39961 5.4487 5.4487 5.49779 5.49779 5.54687 5.54687 5.59596 5.59596 5.64505 5.64505 5.69414 5.69414 5.74322 5.74322 5.79231 5.79231 5.8414 5.8414 5.89049 5.89049 5.93957 5.93957 5.98866 5.98866 6.03775 6.03775 6.08684 6.08684 6.13592 6.13592 6.18501 6.18501 6.2341 6.2341 6.28319 6.28319 6.33227 6.33227 6.38136 6.38136 6.43045 6.43045 6.47953 6.47953 6.52862 6.52862 6.57771 6.57771 6.6268 6.6268 6.67588 6.67588 6.72497 6.72497 6.77406 6.77406 6.82315 6.82315 6.87223 6.87223 6.92132 6.92132 6.97041 6.97041 7.0195 7.0195 7.06858 7.06858 7.11767 7.11767 7.16676 7.16676 7.21585 7.21585 7.26493 7.26493 7.31402 7.31402 7.36311 7.36311 7.4122 7.4122 7.46128 7.46128 7.51037 7.51037 7.55946 7.55946 7.60854 7.60854 7.65763 7.65763 7.70672 7.70672 7.75581 7.75581 7.80489 7.80489 7.85398 7.85398 7.90307 7.90307 7.95216 7.95216 8.00124 8.00124 8.05033 8.05033 8.09942 8.09942 8.14851 8.14851 8.19759 8.19759 8.24668 8.24668 8.29577 8.29577 8.34486 8.34486 8.39394 8.39394 8.44303 8.44303 8.49212 8.49212 8.54121 8.54121 8.59029 8.59029 8.63938 8.63938 8.68847 8.68847 8.73755 8.73755 8.78664 8.78664 8.83573 8.83573 8.88482 8.88482 8.9339 8.9339 8.98299 8.98299 9.03208 9.03208 9.08117 9.08117 9.13025 9.13025 9.17934 9.17934 9.22843 9.22843 9.27752 9.27752 9.3266 9.3266 9.37569 9.37569 9.42478 9.42478 9.47387 9.47387 9.52295 9.52295 9.57204 9.57204 9.62113 9.62113 9.67021 9.67021 9.7193 9.7193 9.76839 9.76839 9.81748 9.81748 9.86656 9.86656 9.91565 9.91565 9.96474 9.96474 10.0138 10.0138 10.0629 10.0629 10.112 10.112 10.1611 10.1611 10.2102 10.2102 10.2593 10.2593 10.3084 10.3084 10.3574 10.3574 10.4065 10.4065 10.4556 10.4556 10.5047 10.5047 10.5538 10.5538 10.6029 10.6029 10.652 10.652 10.701 10.701 10.7501 10.7501 10.7992 10.7992 10.8483 10.8483 10.8974 10.8974 10.9465 10.9465 10.9956 10.9956 11.0447 11.0447 11.0937 11.0937 11.1428 11.1428 11.1919 11.1919 11.241 11.241 11.2901 11.2901 11.3392 11.3392 11.3883 11.3883 11.4374 11.4374 11.4864 11.4864 11.5355 11.5355 11.5846 11.5846 11.6337 11.6337 11.6828 11.6828 11.7319 11.7319 11.781 11.781 11.8301 11.8301 11.8791 11.8791 11.9282 11.9282 11.9773 11.9773 12.0264 12.0264 12.0755 12.0755 12.1246 12.1246 12.1737 12.1737 12.2228 12.2228 12.2718 12.2718 12.3209 12.3209 12.37 12.37 12.4191 12.4191 12.4682 12.4682 12.5173 12.5173 12.5664 
