# vtk DataFile Version 3.0
#This file was generated by the deal.II library on 2026/3/10 at 19:07:17
ASCII
DATASET UNSTRUCTURED_GRID

POINTS 512 double
0 0 0
0.0490874 0 0
0.0490874 0 0
0.0981748 0 0
0.0981748 0 0
0.147262 0 0
0.147262 0 0
0.19635 0 0
0.19635 0 0
0.245437 0 0
0.245437 0 0
0.294524 0 0
0.294524 0 0
0.343612 0 0
0.343612 0 0
0.392699 0 0
0.392699 0 0
0.441786 0 0
0.441786 0 0
0.490874 0 0
0.490874 0 0
0.539961 0 0
0.539961 0 0
0.589049 0 0
0.589049 0 0
0.638136 0 0
0.638136 0 0
0.687223 0 0
0.687223 0 0
0.736311 0 0
0.736311 0 0
0.785398 0 0
0.785398 0 0
0.834486 0 0
0.834486 0 0
0.883573 0 0
0.883573 0 0
0.93266 0 0
0.93266 0 0
0.981748 0 0
0.981748 0 0
1.03084 0 0
1.03084 0 0
1.07992 0 0
1.07992 0 0
1.12901 0 0
1.12901 0 0
1.1781 0 0
1.1781 0 0
1.22718 0 0
1.22718 0 0
1.27627 0 0
1.27627 0 0
1.32536 0 0
1.32536 0 0
1.37445 0 0
1.37445 0 0
1.42353 0 0
1.42353 0 0
1.47262 0 0
1.47262 0 0
1.52171 0 0
1.52171 0 0
1.5708 0 0
1.5708 0 0
1.61988 0 0
1.61988 0 0
1.66897 0 0
1.66897 0 0
1.71806 0 0
1.71806 0 0
1.76715 0 0
1.76715 0 0
1.81623 0 0
1.81623 0 0
1.86532 0 0
1.86532 0 0
1.91441 0 0
1.91441 0 0
1.9635 0 0
1.9635 0 0
2.01258 0 0
2.01258 0 0
2.06167 0 0
2.06167 0 0
2.11076 0 0
2.11076 0 0
2.15984 0 0
2.15984 0 0
2.20893 0 0
2.20893 0 0
2.25802 0 0
2.25802 0 0
2.30711 0 0
2.30711 0 0
2.35619 0 0
2.35619 0 0
2.40528 0 0
2.40528 0 0
2.45437 0 0
2.45437 0 0
2.50346 0 0
2.50346 0 0
2.55254 0 0
2.55254 0 0
2.60163 0 0
2.60163 0 0
2.65072 0 0
2.65072 0 0
2.69981 0 0
2.69981 0 0
2.74889 0 0
2.74889 0 0
2.79798 0 0
2.79798 0 0
2.84707 0 0
2.84707 0 0
2.89616 0 0
2.89616 0 0
2.94524 0 0
2.94524 0 0
2.99433 0 0
2.99433 0 0
3.04342 0 0
3.04342 0 0
3.09251 0 0
3.09251 0 0
3.14159 0 0
3.14159 0 0
3.19068 0 0
3.19068 0 0
3.23977 0 0
3.23977 0 0
3.28885 0 0
3.28885 0 0
3.33794 0 0
3.33794 0 0
3.38703 0 0
3.38703 0 0
3.43612 0 0
3.43612 0 0
3.4852 0 0
3.4852 0 0
3.53429 0 0
3.53429 0 0
3.58338 0 0
3.58338 0 0
3.63247 0 0
3.63247 0 0
3.68155 0 0
3.68155 0 0
3.73064 0 0
3.73064 0 0
3.77973 0 0
3.77973 0 0
3.82882 0 0
3.82882 0 0
3.8779 0 0
3.8779 0 0
3.92699 0 0
3.92699 0 0
3.97608 0 0
3.97608 0 0
4.02517 0 0
4.02517 0 0
4.07425 0 0
4.07425 0 0
4.12334 0 0
4.12334 0 0
4.17243 0 0
4.17243 0 0
4.22152 0 0
4.22152 0 0
4.2706 0 0
4.2706 0 0
4.31969 0 0
4.31969 0 0
4.36878 0 0
4.36878 0 0
4.41786 0 0
4.41786 0 0
4.46695 0 0
4.46695 0 0
4.51604 0 0
4.51604 0 0
4.56513 0 0
4.56513 0 0
4.61421 0 0
4.61421 0 0
4.6633 0 0
4.6633 0 0
4.71239 0 0
4.71239 0 0
4.76148 0 0
4.76148 0 0
4.81056 0 0
4.81056 0 0
4.85965 0 0
4.85965 0 0
4.90874 0 0
4.90874 0 0
4.95783 0 0
4.95783 0 0
5.00691 0 0
5.00691 0 0
5.056 0 0
5.056 0 0
5.10509 0 0
5.10509 0 0
5.15418 0 0
5.15418 0 0
5.20326 0 0
5.20326 0 0
5.25235 0 0
5.25235 0 0
5.30144 0 0
5.30144 0 0
5.35052 0 0
5.35052 0 0
5.39961 0 0
5.39961 0 0
5.4487 0 0
5.4487 0 0
5.49779 0 0
5.49779 0 0
5.54687 0 0
5.54687 0 0
5.59596 0 0
5.59596 0 0
5.64505 0 0
5.64505 0 0
5.69414 0 0
5.69414 0 0
5.74322 0 0
5.74322 0 0
5.79231 0 0
5.79231 0 0
5.8414 0 0
5.8414 0 0
5.89049 0 0
5.89049 0 0
5.93957 0 0
5.93957 0 0
5.98866 0 0
5.98866 0 0
6.03775 0 0
6.03775 0 0
6.08684 0 0
6.08684 0 0
6.13592 0 0
6.13592 0 0
6.18501 0 0
6.18501 0 0
6.2341 0 0
6.2341 0 0
6.28319 0 0
6.28319 0 0
6.33227 0 0
6.33227 0 0
6.38136 0 0
6.38136 0 0
6.43045 0 0
6.43045 0 0
6.47953 0 0
6.47953 0 0
6.52862 0 0
6.52862 0 0
6.57771 0 0
6.57771 0 0
6.6268 0 0
6.6268 0 0
6.67588 0 0
6.67588 0 0
6.72497 0 0
6.72497 0 0
6.77406 0 0
6.77406 0 0
6.82315 0 0
6.82315 0 0
6.87223 0 0
6.87223 0 0
6.92132 0 0
6.92132 0 0
6.97041 0 0
6.97041 0 0
7.0195 0 0
7.0195 0 0
7.06858 0 0
7.06858 0 0
7.11767 0 0
7.11767 0 0
7.16676 0 0
7.16676 0 0
7.21585 0 0
7.21585 0 0
7.26493 0 0
7.26493 0 0
7.31402 0 0
7.31402 0 0
7.36311 0 0
7.36311 0 0
7.4122 0 0
7.4122 0 0
7.46128 0 0
7.46128 0 0
7.51037 0 0
7.51037 0 0
7.55946 0 0
7.55946 0 0
7.60854 0 0
7.60854 0 0
7.65763 0 0
7.65763 0 0
7.70672 0 0
7.70672 0 0
7.75581 0 0
7.75581 0 0
7.80489 0 0
7.80489 0 0
7.85398 0 0
7.85398 0 0
7.90307 0 0
7.90307 0 0
7.95216 0 0
7.95216 0 0
8.00124 0 0
8.00124 0 0
8.05033 0 0
8.05033 0 0
8.09942 0 0
8.09942 0 0
8.14851 0 0
8.14851 0 0
8.19759 0 0
8.19759 0 0
8.24668 0 0
8.24668 0 0
8.29577 0 0
8.29577 0 0
8.34486 0 0
8.34486 0 0
8.39394 0 0
8.39394 0 0
8.44303 0 0
8.44303 0 0
8.49212 0 0
8.49212 0 0
8.54121 0 0
8.54121 0 0
8.59029 0 0
8.59029 0 0
8.63938 0 0
8.63938 0 0
8.68847 0 0
8.68847 0 0
8.73755 0 0
8.73755 0 0
8.78664 0 0
8.78664 0 0
8.83573 0 0
8.83573 0 0
8.88482 0 0
8.88482 0 0
8.9339 0 0
8.9339 0 0
8.98299 0 0
8.98299 0 0
9.03208 0 0
9.03208 0 0
9.08117 0 0
9.08117 0 0
9.13025 0 0
9.13025 0 0
9.17934 0 0
9.17934 0 0
9.22843 0 0
9.22843 0 0
9.27752 0 0
9.27752 0 0
9.3266 0 0
9.3266 0 0
9.37569 0 0
9.37569 0 0
9.42478 0 0
9.42478 0 0
9.47387 0 0
9.47387 0 0
9.52295 0 0
9.52295 0 0
9.57204 0 0
9.57204 0 0
9.62113 0 0
9.62113 0 0
9.67021 0 0
9.67021 0 0
9.7193 0 0
9.7193 0 0
9.76839 0 0
9.76839 0 0
9.81748 0 0
9.81748 0 0
9.86656 0 0
9.86656 0 0
9.91565 0 0
9.91565 0 0
9.96474 0 0
9.96474 0 0
10.0138 0 0
10.0138 0 0
10.0629 0 0
10.0629 0 0
10.112 0 0
10.112 0 0
10.1611 0 0
10.1611 0 0
10.2102 0 0
10.2102 0 0
10.2593 0 0
10.2593 0 0
10.3084 0 0
10.3084 0 0
10.3574 0 0
10.3574 0 0
10.4065 0 0
10.4065 0 0
10.4556 0 0
10.4556 0 0
10.5047 0 0
10.5047 0 0
10.5538 0 0
10.5538 0 0
10.6029 0 0
10.6029 0 0
10.652 0 0
10.652 0 0
10.701 0 0
10.701 0 0
10.7501 0 0
10.7501 0 0
10.7992 0 0
10.7992 0 0
10.8483 0 0
10.8483 0 0
10.8974 0 0
10.8974 0 0
10.9465 0 0
10.9465 0 0
10.9956 0 0
10.9956 0 0
11.0447 0 0
11.0447 0 0
11.0937 0 0
11.0937 0 0
11.1428 0 0
11.1428 0 0
11.1919 0 0
11.1919 0 0
11.241 0 0
11.241 0 0
11.2901 0 0
11.2901 0 0
11.3392 0 0
11.3392 0 0
11.3883 0 0
11.3883 0 0
11.4374 0 0
11.4374 0 0
11.4864 0 0
11.4864 0 0
11.5355 0 0
11.5355 0 0
11.5846 0 0
11.5846 0 0
11.6337 0 0
11.6337 0 0
11.6828 0 0
11.6828 0 0
11.7319 0 0
11.7319 0 0
11.781 0 0
11.781 0 0
11.8301 0 0
11.8301 0 0
11.8791 0 0
11.8791 0 0
11.9282 0 0
11.9282 0 0
11.9773 0 0
11.9773 0 0
12.0264 0 0
12.0264 0 0
12.0755 0 0
12.0755 0 0
12.1246 0 0
12.1246 0 0
12.1737 0 0
12.1737 0 0
12.2228 0 0
12.2228 0 0
12.2718 0 0
12.2718 0 0
12.3209 0 0
12.3209 0 0
12.37 0 0
12.37 0 0
12.4191 0 0
12.4191 0 0
12.4682 0 0
12.4682 0 0
12.5173 0 0
12.5173 0 0
12.5664 0 0

CELLS 256 768
2	0	1
2	2	3
2	4	5
2	6	7
2	8	9
2	10	11
2	12	13
2	14	15
2	16	17
2	18	19
2	20	21
2	22	23
2	24	25
2	26	27
2	28	29
2	30	31
2	32	33
2	34	35
2	36	37
2	38	39
2	40	41
2	42	43
2	44	45
2	46	47
2	48	49
2	50	51
2	52	53
2	54	55
2	56	57
2	58	59
2	60	61
2	62	63
2	64	65
2	66	67
2	68	69
2	70	71
2	72	73
2	74	75
2	76	77
2	78	79
2	80	81
2	82	83
2	84	85
2	86	87
2	88	89
2	90	91
2	92	93
2	94	95
2	96	97
2	98	99
2	100	101
2	102	103
2	104	105
2	106	107
2	108	109
2	110	111
2	112	113
2	114	115
2	116	117
2	118	119
2	120	121
2	122	123
2	124	125
2	126	127
2	128	129
2	130	131
2	132	133
2	134	135
2	136	137
2	138	139
2	140	141
2	142	143
2	144	145
2	146	147
2	148	149
2	150	151
2	152	153
2	154	155
2	156	157
2	158	159
2	160	161
2	162	163
2	164	165
2	166	167
2	168	169
2	170	171
2	172	173
2	174	175
2	176	177
2	178	179
2	180	181
2	182	183
2	184	185
2	186	187
2	188	189
2	190	191
2	192	193
2	194	195
2	196	197
2	198	199
2	200	201
2	202	203
2	204	205
2	206	207
2	208	209
2	210	211
2	212	213
2	214	215
2	216	217
2	218	219
2	220	221
2	222	223
2	224	225
2	226	227
2	228	229
2	230	231
2	232	233
2	234	235
2	236	237
2	238	239
2	240	241
2	242	243
2	244	245
2	246	247
2	248	249
2	250	251
2	252	253
2	254	255
2	256	257
2	258	259
2	260	261
2	262	263
2	264	265
2	266	267
2	268	269
2	270	271
2	272	273
2	274	275
2	276	277
2	278	279
2	280	281
2	282	283
2	284	285
2	286	287
2	288	289
2	290	291
2	292	293
2	294	295
2	296	297
2	298	299
2	300	301
2	302	303
2	304	305
2	306	307
2	308	309
2	310	311
2	312	313
2	314	315
2	316	317
2	318	319
2	320	321
2	322	323
2	324	325
2	326	327
2	328	329
2	330	331
2	332	333
2	334	335
2	336	337
2	338	339
2	340	341
2	342	343
2	344	345
2	346	347
2	348	349
2	350	351
2	352	353
2	354	355
2	356	357
2	358	359
2	360	361
2	362	363
2	364	365
2	366	367
2	368	369
2	370	371
2	372	373
2	374	375
2	376	377
2	378	379
2	380	381
2	382	383
2	384	385
2	386	387
2	388	389
2	390	391
2	392	393
2	394	395
2	396	397
2	398	399
2	400	401
2	402	403
2	404	405
2	406	407
2	408	409
2	410	411
2	412	413
2	414	415
2	416	417
2	418	419
2	420	421
2	422	423
2	424	425
2	426	427
2	428	429
2	430	431
2	432	433
2	434	435
2	436	437
2	438	439
2	440	441
2	442	443
2	444	445
2	446	447
2	448	449
2	450	451
2	452	453
2	454	455
2	456	457
2	458	459
2	460	461
2	462	463
2	464	465
2	466	467
2	468	469
2	470	471
2	472	473
2	474	475
2	476	477
2	478	479
2	480	481
2	482	483
2	484	485
2	486	487
2	488	489
2	490	491
2	492	493
2	494	495
2	496	497
2	498	499
2	500	501
2	502	503
2	504	505
2	506	507
2	508	509
2	510	511

CELL_TYPES 256
 3 3 3 3 3 3 3 3 3 3 3 3 3 3 3 3 3 3 3 3 3 3 3 3 3 3 3 3 3 3 3 3 3 3 3 3 3 3 3 3 3 3 3 3 3 3 3 3 3 3 3 3 3 3 3 3 3 3 3 3 3 3 3 3 3 3 3 3 3 3 3 3 3 3 3 3 3 3 3 3 3 3 3 3 3 3 3 3 3 3 3 3 3 3 3 3 3 3 3 3 3 3 3 3 3 3 3 3 3 3 3 3 3 3 3 3 3 3 3 3 3 3 3 3 3 3 3 3 3 3 3 3 3 3 3 3 3 3 3 3 3 3 3 3 3 3 3 3 3 3 3 3 3 3 3 3 3 3 3 3 3 3 3 3 3 3 3 3 3 3 3 3 3 3 3 3 3 3 3 3 3 3 3 3 3 3 3 3 3 3 3 3 3 3 3 3 3 3 3 3 3 3 3 3 3 3 3 3 3 3 3 3 3 3 3 3 3 3 3 3 3 3 3 3 3 3 3 3 3 3 3 3 3 3 3 3 3 3 3 3 3 3 3 3 3 3 3 3 3 3 3 3 3 3 3 3
POINT_DATA 512
VECTORS electric_field double
-12.5506 0 0
-12.5016 0 0
-12.5016 0 0
-12.4525 0 0
-12.4525 0 0
-12.4034 0 0
-12.4034 0 0
-12.3543 0 0
-12.3543 0 0
-12.3052 0 0
-12.3052 0 0
-12.2561 0 0
-12.2561 0 0
-12.207 0 0
-12.207 0 0
-12.1579 0 0
-12.1579 0 0
-12.1089 0 0
-12.1089 0 0
-12.0598 0 0
-12.0598 0 0
-12.0107 0 0
-12.0107 0 0
-11.9616 0 0
-11.9616 0 0
-11.9125 0 0
-11.9125 0 0
-11.8634 0 0
-11.8634 0 0
-11.8143 0 0
-11.8143 0 0
-11.7652 0 0
-11.7652 0 0
-11.7162 0 0
-11.7162 0 0
-11.6671 0 0
-11.6671 0 0
-11.618 0 0
-11.618 0 0
-11.5689 0 0
-11.5689 0 0
-11.5198 0 0
-11.5198 0 0
-11.4707 0 0
-11.4707 0 0
-11.4216 0 0
-11.4216 0 0
-11.3725 0 0
-11.3725 0 0
-11.3235 0 0
-11.3235 0 0
-11.2744 0 0
-11.2744 0 0
-11.2253 0 0
-11.2253 0 0
-11.1762 0 0
-11.1762 0 0
-11.1271 0 0
-11.1271 0 0
-11.078 0 0
-11.078 0 0
-11.0289 0 0
-11.0289 0 0
-10.9798 0 0
-10.9798 0 0
-10.9308 0 0
-10.9308 0 0
-10.8817 0 0
-10.8817 0 0
-10.8326 0 0
-10.8326 0 0
-10.7835 0 0
-10.7835 0 0
-10.7344 0 0
-10.7344 0 0
-10.6853 0 0
-10.6853 0 0
-10.6362 0 0
-10.6362 0 0
-10.5872 0 0
-10.5872 0 0
-10.5381 0 0
-10.5381 0 0
-10.489 0 0
-10.489 0 0
-10.4399 0 0
-10.4399 0 0
-10.3908 0 0
-10.3908 0 0
-10.3417 0 0
-10.3417 0 0
-10.2926 0 0
-10.2926 0 0
-10.2435 0 0
-10.2435 0 0
-10.1945 0 0
-10.1945 0 0
-10.1454 0 0
-10.1454 0 0
-10.0963 0 0
-10.0963 0 0
-10.0472 0 0
-10.0472 0 0
-9.9981 0 0
-9.9981 0 0
-9.94901 0 0
-9.94901 0 0
-9.89993 0 0
-9.89993 0 0
-9.85084 0 0
-9.85084 0 0
-9.80175 0 0
-9.80175 0 0
-9.75267 0 0
-9.75267 0 0
-9.70358 0 0
-9.70358 0 0
-9.65449 0 0
-9.65449 0 0
-9.6054 0 0
-9.6054 0 0
-9.55632 0 0
-9.55632 0 0
-9.50723 0 0
-9.50723 0 0
-9.45814 0 0
-9.45814 0 0
-9.40905 0 0
-9.40905 0 0
-9.35997 0 0
-9.35997 0 0
-9.31088 0 0
-9.31088 0 0
-9.26179 0 0
-9.26179 0 0
-9.2127 0 0
-9.2127 0 0
-9.16362 0 0
-9.16362 0 0
-9.11453 0 0
-9.11453 0 0
-9.06544 0 0
-9.06544 0 0
-9.01635 0 0
-9.01635 0 0
-8.96727 0 0
-8.96727 0 0
-8.91818 0 0
-8.91818 0 0
-8.86909 0 0
-8.86909 0 0
-8.82001 0 0
-8.82001 0 0
-8.77092 0 0
-8.77092 0 0
-8.72183 0 0
-8.72183 0 0
-8.67274 0 0
-8.67274 0 0
-8.62366 0 0
-8.62366 0 0
-8.57457 0 0
-8.57457 0 0
-8.52548 0 0
-8.52548 0 0
-8.47639 0 0
-8.47639 0 0
-8.42731 0 0
-8.42731 0 0
-8.37822 0 0
-8.37822 0 0
-8.32913 0 0
-8.32913 0 0
-8.28004 0 0
-8.28004 0 0
-8.23096 0 0
-8.23096 0 0
-8.18187 0 0
-8.18187 0 0
-8.13278 0 0
-8.13278 0 0
-8.08369 0 0
-8.08369 0 0
-8.03461 0 0
-8.03461 0 0
-7.98552 0 0
-7.98552 0 0
-7.93643 0 0
-7.93643 0 0
-7.88734 0 0
-7.88734 0 0
-7.83826 0 0
-7.83826 0 0
-7.78917 0 0
-7.78917 0 0
-7.74008 0 0
-7.74008 0 0
-7.691 0 0
-7.691 0 0
-7.64191 0 0
-7.64191 0 0
-7.59282 0 0
-7.59282 0 0
-7.54373 0 0
-7.54373 0 0
-7.49465 0 0
-7.49465 0 0
-7.44556 0 0
-7.44556 0 0
-7.39647 0 0
-7.39647 0 0
-7.34738 0 0
-7.34738 0 0
-7.2983 0 0
-7.2983 0 0
-7.24921 0 0
-7.24921 0 0
-7.20012 0 0
-7.20012 0 0
-7.15103 0 0
-7.15103 0 0
-7.10195 0 0
-7.10195 0 0
-7.05286 0 0
-7.05286 0 0
-7.00377 0 0
-7.00377 0 0
-6.95468 0 0
-6.95468 0 0
-6.9056 0 0
-6.9056 0 0
-6.85651 0 0
-6.85651 0 0
-6.80742 0 0
-6.80742 0 0
-6.75834 0 0
-6.75834 0 0
-6.70925 0 0
-6.70925 0 0
-6.66016 0 0
-6.66016 0 0
-6.61107 0 0
-6.61107 0 0
-6.56199 0 0
-6.56199 0 0
-6.5129 0 0
-6.5129 0 0
-6.46381 0 0
-6.46381 0 0
-6.41472 0 0
-6.41472 0 0
-6.36564 0 0
-6.36564 0 0
-6.31655 0 0
-6.31655 0 0
-6.26746 0 0
-6.26746 0 0
-6.21837 0 0
-6.21837 0 0
-6.16929 0 0
-6.16929 0 0
-6.1202 0 0
-6.1202 0 0
-6.07111 0 0
-6.07111 0 0
-6.02202 0 0
-6.02202 0 0
-5.97294 0 0
-5.97294 0 0
-5.92385 0 0
-5.92385 0 0
-5.87476 0 0
-5.87476 0 0
-5.82567 0 0
-5.82567 0 0
-5.77659 0 0
-5.77659 0 0
-5.7275 0 0
-5.7275 0 0
-5.67841 0 0
-5.67841 0 0
-5.62933 0 0
-5.62933 0 0
-5.58024 0 0
-5.58024 0 0
-5.53115 0 0
-5.53115 0 0
-5.48206 0 0
-5.48206 0 0
-5.43298 0 0
-5.43298 0 0
-5.38389 0 0
-5.38389 0 0
-5.3348 0 0
-5.3348 0 0
-5.28571 0 0
-5.28571 0 0
-5.23663 0 0
-5.23663 0 0
-5.18754 0 0
-5.18754 0 0
-5.13845 0 0
-5.13845 0 0
-5.08936 0 0
-5.08936 0 0
-5.04028 0 0
-5.04028 0 0
-4.99119 0 0
-4.99119 0 0
-4.9421 0 0
-4.9421 0 0
-4.89301 0 0
-4.89301 0 0
-4.84393 0 0
-4.84393 0 0
-4.79484 0 0
-4.79484 0 0
-4.74575 0 0
-4.74575 0 0
-4.69666 0 0
-4.69666 0 0
-4.64758 0 0
-4.64758 0 0
-4.59849 0 0
-4.59849 0 0
-4.5494 0 0
-4.5494 0 0
-4.50032 0 0
-4.50032 0 0
-4.45123 0 0
-4.45123 0 0
-4.40214 0 0
-4.40214 0 0
-4.35305 0 0
-4.35305 0 0
-4.30397 0 0
-4.30397 0 0
-4.25488 0 0
-4.25488 0 0
-4.20579 0 0
-4.20579 0 0
-4.1567 0 0
-4.1567 0 0
-4.10762 0 0
-4.10762 0 0
-4.05853 0 0
-4.05853 0 0
-4.00944 0 0
-4.00944 0 0
-3.96035 0 0
-3.96035 0 0
-3.91127 0 0
-3.91127 0 0
-3.86218 0 0
-3.86218 0 0
-3.81309 0 0
-3.81309 0 0
-3.764 0 0
-3.764 0 0
-3.71492 0 0
-3.71492 0 0
-3.66583 0 0
-3.66583 0 0
-3.61674 0 0
-3.61674 0 0
-3.56766 0 0
-3.56766 0 0
-3.51857 0 0
-3.51857 0 0
-3.46948 0 0
-3.46948 0 0
-3.42039 0 0
-3.42039 0 0
-3.37131 0 0
-3.37131 0 0
-3.32222 0 0
-3.32222 0 0
-3.27313 0 0
-3.27313 0 0
-3.22404 0 0
-3.22404 0 0
-3.17496 0 0
-3.17496 0 0
-3.12587 0 0
-3.12587 0 0
-3.07678 0 0
-3.07678 0 0
-3.02769 0 0
-3.02769 0 0
-2.97861 0 0
-2.97861 0 0
-2.92952 0 0
-2.92952 0 0
-2.88043 0 0
-2.88043 0 0
-2.83134 0 0
-2.83134 0 0
-2.78226 0 0
-2.78226 0 0
-2.73317 0 0
-2.73317 0 0
-2.68408 0 0
-2.68408 0 0
-2.63499 0 0
-2.63499 0 0
-2.58591 0 0
-2.58591 0 0
-2.53682 0 0
-2.53682 0 0
-2.48773 0 0
-2.48773 0 0
-2.43865 0 0
-2.43865 0 0
-2.38956 0 0
-2.38956 0 0
-2.34047 0 0
-2.34047 0 0
-2.29138 0 0
-2.29138 0 0
-2.2423 0 0
-2.2423 0 0
-2.19321 0 0
-2.19321 0 0
-2.14412 0 0
-2.14412 0 0
-2.09503 0 0
-2.09503 0 0
-2.04595 0 0
-2.04595 0 0
-1.99686 0 0
-1.99686 0 0
-1.94777 0 0
-1.94777 0 0
-1.89868 0 0
-1.89868 0 0
-1.8496 0 0
-1.8496 0 0
-1.80051 0 0
-1.80051 0 0
-1.75142 0 0
-1.75142 0 0
-1.70233 0 0
-1.70234 0 0
-1.65325 0 0
-1.65326 0 0
-1.60418 0 0
-1.60418 0 0
-1.55509 0 0
-1.55509 0 0
-1.506 0 0
-1.506 0 0
-1.45692 0 0
-1.45692 0 0
-1.40783 0 0
-1.40783 0 0
-1.35878 0 0
-1.35877 0 0
-1.30968 0 0
-1.30968 0 0
-1.2606 0 0
-1.26059 0 0
-1.21151 0 0
-1.21151 0 0
-1.16243 0 0
-1.16243 0 0
-1.11335 0 0
-1.11335 0 0
-1.06426 0 0
-1.06426 0 0
-1.01518 0 0
-1.01518 0 0
-0.966097 0 0
-0.966099 0 0
-0.917015 0 0
-0.917015 0 0
-0.867944 0 0
-0.867939 0 0
-0.818908 0 0
-0.818914 0 0
-0.769853 0 0
-0.769856 0 0
-0.720783 0 0
-0.720778 0 0
-0.671745 0 0
-0.671745 0 0
-0.622705 0 0
-0.622695 0 0
-0.573619 0 0
-0.573615 0 0
-0.524653 0 0
-0.524661 0 0
-0.475774 0 0
-0.47578 0 0
-0.427029 0 0
-0.427051 0 0
-0.378569 0 0
-0.37858 0 0
-0.330294 0 0
-0.330289 0 0
-0.282466 0 0
-0.28242 0 0
-0.235309 0 0
-0.235322 0 0
-0.188604 0 0
-0.188646 0 0
-0.1431 0 0
-0.143073 0 0
-0.0982254 0 0
-0.0981748 0 0
-0.0490874 0 0
-0.0490874 0 0
5.09317e-11 0 0
SCALARS potential double 1
LOOKUP_TABLE default
0 0.614874 0.614874 1.22734 1.22734 1.83739 1.83739 2.44504 2.44504 3.05027 3.05027 3.6531 3.6531 4.25351 4.25351 4.85152 4.85152 5.44712 5.44712 6.04031 6.04031 6.63108 6.63108 7.21945 7.21945 7.80541 7.80541 8.38896 8.38896 8.9701 8.9701 9.54883 9.54883 10.1251 10.1251 10.6991 10.6991 11.2706 11.2706 11.8397 11.8397 12.4063 12.4063 12.9706 12.9706 13.5325 13.5325 14.0919 14.0919 14.649 14.649 15.2036 15.2036 15.7558 15.7558 16.3056 16.3056 16.8531 16.8531 17.398 17.398 17.9406 17.9406 18.4808 18.4808 19.0186 19.0186 19.5539 19.5539 20.0869 20.0869 20.6174 20.6174 21.1455 21.1455 21.6713 21.6713 22.1946 22.1946 22.7155 22.7155 23.234 23.234 23.7501 23.7501 24.2637 24.2637 24.775 24.775 25.2838 25.2838 25.7903 25.7903 26.2943 26.2943 26.7959 26.7959 27.2952 27.2952 27.792 27.792 28.2864 28.2864 28.7783 28.7783 29.2679 29.2679 29.7551 29.7551 30.2398 30.2398 30.7222 30.7222 31.2021 31.2021 31.6796 31.6796 32.1548 32.1548 32.6275 32.6275 33.0978 33.0978 33.5657 33.5657 34.0311 34.0311 34.4942 34.4942 34.9549 34.9549 35.4131 35.4131 35.869 35.869 36.3224 36.3224 36.7734 36.7734 37.222 37.222 37.6682 37.6682 38.112 38.112 38.5534 38.5534 38.9924 38.9924 39.429 39.429 39.8631 39.8631 40.2949 40.2949 40.7242 40.7242 41.1511 41.1511 41.5756 41.5756 41.9978 41.9978 42.4174 42.4174 42.8347 42.8347 43.2496 43.2496 43.6621 43.6621 44.0721 44.0721 44.4798 44.4798 44.885 44.885 45.2879 45.2879 45.6883 45.6883 46.0863 46.0863 46.4819 46.4819 46.8751 46.8751 47.2659 47.2659 47.6543 47.6543 48.0402 48.0402 48.4238 48.4238 48.8049 48.8049 49.1837 49.1837 49.56 49.56 49.9339 49.9339 50.3054 50.3054 50.6745 50.6745 51.0412 51.0412 51.4055 51.4055 51.7673 51.7673 52.1268 52.1268 52.4838 52.4838 52.8385 52.8385 53.1907 53.1907 53.5405 53.5405 53.888 53.888 54.233 54.233 54.5755 54.5755 54.9157 54.9157 55.2535 55.2535 55.5889 55.5889 55.9218 55.9218 56.2524 56.2524 56.5805 56.5805 56.9062 56.9062 57.2295 57.2295 57.5504 57.5504 57.8689 57.8689 58.185 58.185 58.4987 58.4987 58.81 58.81 59.1188 59.1188 59.4253 59.4253 59.7293 59.7293 60.0309 60.0309 60.3302 60.3302 60.627 60.627 60.9214 60.9214 61.2134 61.2134 61.5029 61.5029 61.7901 61.7901 62.0749 62.0749 62.3572 62.3572 62.6372 62.6372 62.9147 62.9147 63.1898 63.1898 63.4626 63.4626 63.7329 63.7329 64.0008 64.0008 64.2662 64.2662 64.5293 64.5293 64.79 64.79 65.0482 65.0482 65.3041 65.3041 65.5575 65.5575 65.8085 65.8085 66.0572 66.0572 66.3034 66.3034 66.5472 66.5472 66.7886 66.7886 67.0275 67.0275 67.2641 67.2641 67.4983 67.4983 67.73 67.73 67.9594 67.9594 68.1863 68.1863 68.4108 68.4108 68.6329 68.6329 68.8526 68.8526 69.0699 69.0699 69.2848 69.2848 69.4973 69.4973 69.7074 69.7074 69.915 69.915 70.1203 70.1203 70.3231 70.3231 70.5235 70.5235 70.7215 70.7215 70.9172 70.9172 71.1104 71.1104 71.3011 71.3011 71.4895 71.4895 71.6755 71.6755 71.8591 71.8591 72.0402 72.0402 72.2189 72.2189 72.3953 72.3953 72.5692 72.5692 72.7407 72.7407 72.9098 72.9098 73.0765 73.0765 73.2408 73.2408 73.4027 73.4027 73.5621 73.5621 73.7192 73.7192 73.8738 73.8738 74.0261 74.0261 74.1759 74.1759 74.3233 74.3233 74.4683 74.4683 74.6109 74.6109 74.7511 74.7511 74.8889 74.8889 75.0243 75.0243 75.1572 75.1572 75.2878 75.2878 75.4159 75.4159 75.5416 75.5416 75.665 75.665 75.7859 75.7859 75.9044 75.9044 76.0205 76.0205 76.1341 76.1341 76.2454 76.2454 76.3543 76.3543 76.4607 76.4607 76.5648 76.5648 76.6664 76.6664 76.7656 76.7656 76.8625 76.8625 76.9569 76.9569 77.0489 77.0489 77.1385 77.1385 77.2256 77.2256 77.3104 77.3104 77.3928 77.3928 77.4727 77.4727 77.5502 77.5502 77.6254 77.6254 77.6981 77.6981 77.7684 77.7684 77.8363 77.8363 77.9018 77.9018 77.9649 77.9649 78.0256 78.0256 78.0838 78.0838 78.1397 78.1397 78.1931 78.1931 78.2442 78.2442 78.2928 78.2928 78.339 78.339 78.3828 78.3828 78.4242 78.4242 78.4632 78.4632 78.4998 78.4998 78.534 78.534 78.5658 78.5658 78.5951 78.5951 78.6221 78.6221 78.6466 78.6466 78.6688 78.6688 78.6886 78.6886 78.7059 78.7059 78.721 78.721 78.7337 78.7337 78.7441 78.7441 78.7522 78.7522 78.7581 78.7581 78.7618 78.7618 78.763 
SCALARS x_coordinate double 1
LOOKUP_TABLE default
0 0.0490874 0.0490874 0.0981748 0.0981748 0.147262 0.147262 0.19635 0.19635 0.245437 0.245437 0.294524 0.294524 0.343612 0.343612 0.392699 0.392699 0.441786 0.441786 0.490874 0.490874 0.539961 0.539961 0.589049 0.589049 0.638136 0.638136 0.687223 0.687223 0.736311 0.736311 0.785398 0.785398 0.834486 0.834486 0.883573 0.883573 0.93266 0.93266 0.981748 0.981748 1.03084 1.03084 1.07992 1.07992 1.12901 1.12901 1.1781 1.1781 1.22718 1.22718 1.27627 1.27627 1.32536 1.32536 1.37445 1.37445 1.42353 1.42353 1.47262 1.47262 1.52171 1.52171 1.5708 1.5708 1.61988 1.61988 1.66897 1.66897 1.71806 1.71806 1.76715 1.76715 1.81623 1.81623 1.86532 1.86532 1.91441 1.91441 1.9635 1.9635 2.01258 2.01258 2.06167 2.06167 2.11076 2.11076 2.15984 2.15984 2.20893 2.20893 2.25802 2.25802 2.30711 2.30711 2.35619 2.35619 2.40528 2.40528 2.45437 2.45437 2.50346 2.50346 2.55254 2.55254 2.60163 2.60163 2.65072 2.65072 2.69981 2.69981 2.74889 2.74889 2.79798 2.79798 2.84707 2.84707 2.89616 2.89616 2.94524 2.94524 2.99433 2.99433 3.04342 3.04342 3.09251 3.09251 3.14159 3.14159 3.19068 3.19068 3.23977 3.23977 3.28885 3.28885 3.33794 3.33794 3.38703 3.38703 3.43612 3.43612 3.4852 3.4852 3.53429 3.53429 3.58338 3.58338 3.63247 3.63247 3.68155 3.68155 3.73064 3.73064 3.77973 3.77973 3.82882 3.82882 3.8779 3.8779 3.92699 3.92699 3.97608 3.97608 4.02517 4.02517 4.07425 4.07425 4.12334 4.12334 4.17243 4.17243 4.22152 4.22152 4.2706 4.2706 4.31969 4.31969 4.36878 4.36878 4.41786 4.41786 4.46695 4.46695 4.51604 4.51604 4.56513 4.56513 4.61421 4.61421 4.6633 4.6633 4.71239 4.71239 4.76148 4.76148 4.81056 4.81056 4.85965 4.85965 4.90874 4.90874 4.95783 4.95783 5.00691 5.00691 5.056 5.056 5.10509 5.10509 5.15418 5.15418 5.20326 5.20326 5.25235 5.25235 5.30144 5.30144 5.35052 5.35052 5.39961 5.39961 5.4487 5.4487 5.49779 5.49779 5.54687 5.54687 5.59596 5.59596 5.64505 5.64505 5.69414 5.69414 5.74322 5.74322 5.79231 5.79231 5.8414 5.8414 5.89049 5.89049 5.93957 5.93957 5.98866 5.98866 6.03775 6.03775 6.08684 6.08684 6.13592 6.13592 6.18501 6.18501 6.2341 6.2341 6.28319 6.28319 6.33227 6.33227 6.38136 6.38136 6.43045 6.43045 6.47953 6.47953 6.52862 6.52862 6.57771 6.57771 6.6268 6.6268 6.67588 6.67588 6.72497 6.72497 6.77406 6.77406 6.82315 6.82315 6.87223 6.87223 6.92132 6.92132 6.97041 6.97041 7.0195 7.0195 7.06858 7.06858 7.11767 7.11767 7.16676 7.16676 7.21585 7.21585 7.26493 7.26493 7.31402 7.31402 7.36311 7.36311 7.4122 7.4122 7.46128 7.46128 7.51037 7.51037 7.55946 7.55946 7.60854 7.60854 7.65763 7.65763 7.70672 7.70672 7.75581 7.75581 7.80489 7.80489 7.85398 7.85398 7.90307 7.90307 7.95216 7.95216 8.00124 8.00124 8.05033 8.05033 8.09942 8.09942 8.14851 8.14851 8.19759 8.19759 8.24668 8.24668 8.29577 8.29577 8.34486 8.34486 8.39394 8.39394 8.44303 8.44303 8.49212 8.49212 8.54121 8.54121 8.59029 8.59029 8.63938 8.63938 8.68847 8.68847 8.73755 8.73755 8.78664 8.78664 8.83573 8.83573 8.88482 8.88482 8.9339 8.9339 8.98299 8.98299 9.03208 9.03208 9.08117 9.08117 9.13025 9.13025 9.17934 9.17934 9.22843 9.22843 9.27752 9.27752 9.3266 9.3266 9.37569 9.37569 9.42478 9.42478 9.47387 9.47387 9.52295 9.52295 9.57204 9.57204 9.62113 9.62113 9.67021 9.67021 9.7193 9.7193 9.76839 9.76839 9.81748 9.81748 9.86656 9.86656 9.91565 9.91565 9.96474 9.96474 10.0138 10.0138 10.0629 10.0629 10.112 10.112 10.1611 10.1611 10.2102 10.2102 10.2593 10.2593 10.3084 10.3084 10.3574 10.3574 10.4065 10.4065 10.4556 10.4556 10.5047 10.5047 10.5538 10.5538 10.6029 10.6029 10.652 10.652 10.701 10.701 10.7501 10.7501 10.7992 10.7992 10.8483 10.8483 10.8974 10.8974 10.9465 10.9465 10.9956 10.9956 11.0447 11.0447 11.0937 11.0937 11.1428 11.1428 11.1919 11.1919 11.241 11.241 11.2901 11.2901 11.3392 11.3392 11.3883 11.3883 11.4374 11.4374 11.4864 11.4864 11.5355 11.5355 11.5846 11.5846 11.6337 11.6337 11.6828 11.6828 11.7319 11.7319 11.781 11.781 11.8301 11.8301 11.8791 11.8791 11.9282 11.9282 11.9773 11.9773 12.0264 12.0264 12.0755 12.0755 12.1246 12.1246 12.1737 12.1737 12.2228 12.2228 12.2718 12.2718 12.3209 12.3209 12.37 12.37 12.4191 12.4191 12.4682 12.4682 12.5173 12.5173 12.5664 
