# vtk DataFile Version 3.0
#This file was generated by the deal.II library on 2026/3/10 at 19:01:07
ASCII
DATASET UNSTRUCTURED_GRID

POINTS 256 double
0 0 0
0.0981748 0 0
0.0981748 0 0
0.19635 0 0
0.19635 0 0
0.294524 0 0
0.294524 0 0
0.392699 0 0
0.392699 0 0
0.490874 0 0
0.490874 0 0
0.589049 0 0
0.589049 0 0
0.687223 0 0
0.687223 0 0
0.785398 0 0
0.785398 0 0
0.883573 0 0
0.883573 0 0
0.981748 0 0
0.981748 0 0
1.07992 0 0
1.07992 0 0
1.1781 0 0
1.1781 0 0
1.27627 0 0
1.27627 0 0
1.37445 0 0
1.37445 0 0
1.47262 0 0
1.47262 0 0
1.5708 0 0
1.5708 0 0
1.66897 0 0
1.66897 0 0
1.76715 0 0
1.76715 0 0
1.86532 0 0
1.86532 0 0
1.9635 0 0
1.9635 0 0
2.06167 0 0
2.06167 0 0
2.15984 0 0
2.15984 0 0
2.25802 0 0
2.25802 0 0
2.35619 0 0
2.35619 0 0
2.45437 0 0
2.45437 0 0
2.55254 0 0
2.55254 0 0
2.65072 0 0
2.65072 0 0
2.74889 0 0
2.74889 0 0
2.84707 0 0
2.84707 0 0
2.94524 0 0
2.94524 0 0
3.04342 0 0
3.04342 0 0
3.14159 0 0
3.14159 0 0
3.23977 0 0
3.23977 0 0
3.33794 0 0
3.33794 0 0
3.43612 0 0
3.43612 0 0
3.53429 0 0
3.53429 0 0
3.63247 0 0
3.63247 0 0
3.73064 0 0
3.73064 0 0
3.82882 0 0
3.82882 0 0
3.92699 0 0
3.92699 0 0
4.02517 0 0
4.02517 0 0
4.12334 0 0
4.12334 0 0
4.22152 0 0
4.22152 0 0
4.31969 0 0
4.31969 0 0
4.41786 0 0
4.41786 0 0
4.51604 0 0
4.51604 0 0
4.61421 0 0
4.61421 0 0
4.71239 0 0
4.71239 0 0
4.81056 0 0
4.81056 0 0
4.90874 0 0
4.90874 0 0
5.00691 0 0
5.00691 0 0
5.10509 0 0
5.10509 0 0
5.20326 0 0
5.20326 0 0
5.30144 0 0
5.30144 0 0
5.39961 0 0
5.39961 0 0
5.49779 0 0
5.49779 0 0
5.59596 0 0
5.59596 0 0
5.69414 0 0
5.69414 0 0
5.79231 0 0
5.79231 0 0
5.89049 0 0
5.89049 0 0
5.98866 0 0
5.98866 0 0
6.08684 0 0
6.08684 0 0
6.18501 0 0
6.18501 0 0
6.28319 0 0
6.28319 0 0
6.38136 0 0
6.38136 0 0
6.47953 0 0
6.47953 0 0
6.57771 0 0
6.57771 0 0
6.67588 0 0
6.67588 0 0
6.77406 0 0
6.77406 0 0
6.87223 0 0
6.87223 0 0
6.97041 0 0
6.97041 0 0
7.06858 0 0
7.06858 0 0
7.16676 0 0
7.16676 0 0
7.26493 0 0
7.26493 0 0
7.36311 0 0
7.36311 0 0
7.46128 0 0
7.46128 0 0
7.55946 0 0
7.55946 0 0
7.65763 0 0
7.65763 0 0
7.75581 0 0
7.75581 0 0
7.85398 0 0
7.85398 0 0
7.95216 0 0
7.95216 0 0
8.05033 0 0
8.05033 0 0
8.14851 0 0
8.14851 0 0
8.24668 0 0
8.24668 0 0
8.34486 0 0
8.34486 0 0
8.44303 0 0
8.44303 0 0
8.54121 0 0
8.54121 0 0
8.63938 0 0
8.63938 0 0
8.73755 0 0
8.73755 0 0
8.83573 0 0
8.83573 0 0
8.9339 0 0
8.9339 0 0
9.03208 0 0
9.03208 0 0
9.13025 0 0
9.13025 0 0
9.22843 0 0
9.22843 0 0
9.3266 0 0
9.3266 0 0
9.42478 0 0
9.42478 0 0
9.52295 0 0
9.52295 0 0
9.62113 0 0
9.62113 0 0
9.7193 0 0
9.7193 0 0
9.81748 0 0
9.81748 0 0
9.91565 0 0
9.91565 0 0
10.0138 0 0
10.0138 0 0
10.112 0 0
10.112 0 0
10.2102 0 0
10.2102 0 0
10.3084 0 0
10.3084 0 0
10.4065 0 0
10.4065 0 0
10.5047 0 0
10.5047 0 0
10.6029 0 0
10.6029 0 0
10.701 0 0
10.701 0 0
10.7992 0 0
10.7992 0 0
10.8974 0 0
10.8974 0 0
10.9956 0 0
10.9956 0 0
11.0937 0 0
11.0937 0 0
11.1919 0 0
11.1919 0 0
11.2901 0 0
11.2901 0 0
11.3883 0 0
11.3883 0 0
11.4864 0 0
11.4864 0 0
11.5846 0 0
11.5846 0 0
11.6828 0 0
11.6828 0 0
11.781 0 0
11.781 0 0
11.8791 0 0
11.8791 0 0
11.9773 0 0
11.9773 0 0
12.0755 0 0
12.0755 0 0
12.1737 0 0
12.1737 0 0
12.2718 0 0
12.2718 0 0
12.37 0 0
12.37 0 0
12.4682 0 0
12.4682 0 0
12.5664 0 0

CELLS 128 384
2	0	1
2	2	3
2	4	5
2	6	7
2	8	9
2	10	11
2	12	13
2	14	15
2	16	17
2	18	19
2	20	21
2	22	23
2	24	25
2	26	27
2	28	29
2	30	31
2	32	33
2	34	35
2	36	37
2	38	39
2	40	41
2	42	43
2	44	45
2	46	47
2	48	49
2	50	51
2	52	53
2	54	55
2	56	57
2	58	59
2	60	61
2	62	63
2	64	65
2	66	67
2	68	69
2	70	71
2	72	73
2	74	75
2	76	77
2	78	79
2	80	81
2	82	83
2	84	85
2	86	87
2	88	89
2	90	91
2	92	93
2	94	95
2	96	97
2	98	99
2	100	101
2	102	103
2	104	105
2	106	107
2	108	109
2	110	111
2	112	113
2	114	115
2	116	117
2	118	119
2	120	121
2	122	123
2	124	125
2	126	127
2	128	129
2	130	131
2	132	133
2	134	135
2	136	137
2	138	139
2	140	141
2	142	143
2	144	145
2	146	147
2	148	149
2	150	151
2	152	153
2	154	155
2	156	157
2	158	159
2	160	161
2	162	163
2	164	165
2	166	167
2	168	169
2	170	171
2	172	173
2	174	175
2	176	177
2	178	179
2	180	181
2	182	183
2	184	185
2	186	187
2	188	189
2	190	191
2	192	193
2	194	195
2	196	197
2	198	199
2	200	201
2	202	203
2	204	205
2	206	207
2	208	209
2	210	211
2	212	213
2	214	215
2	216	217
2	218	219
2	220	221
2	222	223
2	224	225
2	226	227
2	228	229
2	230	231
2	232	233
2	234	235
2	236	237
2	238	239
2	240	241
2	242	243
2	244	245
2	246	247
2	248	249
2	250	251
2	252	253
2	254	255

CELL_TYPES 128
 3 3 3 3 3 3 3 3 3 3 3 3 3 3 3 3 3 3 3 3 3 3 3 3 3 3 3 3 3 3 3 3 3 3 3 3 3 3 3 3 3 3 3 3 3 3 3 3 3 3 3 3 3 3 3 3 3 3 3 3 3 3 3 3 3 3 3 3 3 3 3 3 3 3 3 3 3 3 3 3 3 3 3 3 3 3 3 3 3 3 3 3 3 3 3 3 3 3 3 3 3 3 3 3 3 3 3 3 3 3 3 3 3 3 3 3 3 3 3 3 3 3 3 3 3 3 3 3
POINT_DATA 256
VECTORS electric_field double
-12.5664 0 0
-12.4682 0 0
-12.4682 0 0
-12.37 0 0
-12.37 0 0
-12.2718 0 0
-12.2718 0 0
-12.1737 0 0
-12.1737 0 0
-12.0755 0 0
-12.0755 0 0
-11.9773 0 0
-11.9773 0 0
-11.8791 0 0
-11.8791 0 0
-11.781 0 0
-11.781 0 0
-11.6828 0 0
-11.6828 0 0
-11.5846 0 0
-11.5846 0 0
-11.4864 0 0
-11.4864 0 0
-11.3883 0 0
-11.3883 0 0
-11.2901 0 0
-11.2901 0 0
-11.1919 0 0
-11.1919 0 0
-11.0937 0 0
-11.0937 0 0
-10.9956 0 0
-10.9956 0 0
-10.8974 0 0
-10.8974 0 0
-10.7992 0 0
-10.7992 0 0
-10.701 0 0
-10.701 0 0
-10.6029 0 0
-10.6029 0 0
-10.5047 0 0
-10.5047 0 0
-10.4065 0 0
-10.4065 0 0
-10.3083 0 0
-10.3083 0 0
-10.2102 0 0
-10.2102 0 0
-10.112 0 0
-10.112 0 0
-10.0138 0 0
-10.0138 0 0
-9.91564 0 0
-9.91564 0 0
-9.81746 0 0
-9.81746 0 0
-9.71929 0 0
-9.71929 0 0
-9.62111 0 0
-9.62111 0 0
-9.52294 0 0
-9.52294 0 0
-9.42477 0 0
-9.42477 0 0
-9.32659 0 0
-9.32659 0 0
-9.22842 0 0
-9.22842 0 0
-9.13024 0 0
-9.13024 0 0
-9.03207 0 0
-9.03207 0 0
-8.93389 0 0
-8.93389 0 0
-8.83572 0 0
-8.83572 0 0
-8.73754 0 0
-8.73754 0 0
-8.63937 0 0
-8.63937 0 0
-8.54119 0 0
-8.54119 0 0
-8.44302 0 0
-8.44302 0 0
-8.34484 0 0
-8.34484 0 0
-8.24667 0 0
-8.24667 0 0
-8.14849 0 0
-8.14849 0 0
-8.05032 0 0
-8.05032 0 0
-7.95214 0 0
-7.95214 0 0
-7.85397 0 0
-7.85397 0 0
-7.75579 0 0
-7.75579 0 0
-7.65762 0 0
-7.65762 0 0
-7.55944 0 0
-7.55944 0 0
-7.46127 0 0
-7.46127 0 0
-7.3631 0 0
-7.3631 0 0
-7.26492 0 0
-7.26492 0 0
-7.16675 0 0
-7.16675 0 0
-7.06857 0 0
-7.06857 0 0
-6.9704 0 0
-6.9704 0 0
-6.87222 0 0
-6.87222 0 0
-6.77405 0 0
-6.77405 0 0
-6.67587 0 0
-6.67587 0 0
-6.5777 0 0
-6.5777 0 0
-6.47952 0 0
-6.47952 0 0
-6.38135 0 0
-6.38135 0 0
-6.28317 0 0
-6.28317 0 0
-6.185 0 0
-6.185 0 0
-6.08682 0 0
-6.08682 0 0
-5.98865 0 0
-5.98865 0 0
-5.89047 0 0
-5.89047 0 0
-5.7923 0 0
-5.7923 0 0
-5.69412 0 0
-5.69412 0 0
-5.59595 0 0
-5.59595 0 0
-5.49777 0 0
-5.49777 0 0
-5.3996 0 0
-5.3996 0 0
-5.30142 0 0
-5.30142 0 0
-5.20325 0 0
-5.20325 0 0
-5.10508 0 0
-5.10508 0 0
-5.0069 0 0
-5.0069 0 0
-4.90873 0 0
-4.90873 0 0
-4.81055 0 0
-4.81055 0 0
-4.71238 0 0
-4.71238 0 0
-4.6142 0 0
-4.6142 0 0
-4.51603 0 0
-4.51603 0 0
-4.41785 0 0
-4.41785 0 0
-4.31968 0 0
-4.31968 0 0
-4.2215 0 0
-4.2215 0 0
-4.12333 0 0
-4.12333 0 0
-4.02515 0 0
-4.02515 0 0
-3.92698 0 0
-3.92698 0 0
-3.8288 0 0
-3.8288 0 0
-3.73063 0 0
-3.73063 0 0
-3.63245 0 0
-3.63245 0 0
-3.53428 0 0
-3.53428 0 0
-3.4361 0 0
-3.4361 0 0
-3.33793 0 0
-3.33793 0 0
-3.23975 0 0
-3.23975 0 0
-3.14158 0 0
-3.14158 0 0
-3.04341 0 0
-3.04341 0 0
-2.94523 0 0
-2.94523 0 0
-2.84706 0 0
-2.84706 0 0
-2.74888 0 0
-2.74888 0 0
-2.65071 0 0
-2.65071 0 0
-2.55253 0 0
-2.55253 0 0
-2.45436 0 0
-2.45436 0 0
-2.35618 0 0
-2.35618 0 0
-2.25801 0 0
-2.25801 0 0
-2.15983 0 0
-2.15983 0 0
-2.06166 0 0
-2.06166 0 0
-1.96348 0 0
-1.96348 0 0
-1.86531 0 0
-1.86531 0 0
-1.76713 0 0
-1.76713 0 0
-1.66896 0 0
-1.66896 0 0
-1.57079 0 0
-1.5708 0 0
-1.47262 0 0
-1.47262 0 0
-1.37445 0 0
-1.37445 0 0
-1.27627 0 0
-1.27627 0 0
-1.1781 0 0
-1.1781 0 0
-1.07992 0 0
-1.07992 0 0
-0.981748 0 0
-0.981748 0 0
-0.883573 0 0
-0.883573 0 0
-0.785398 0 0
-0.785398 0 0
-0.687223 0 0
-0.687223 0 0
-0.589049 0 0
-0.589049 0 0
-0.490874 0 0
-0.490874 0 0
-0.392699 0 0
-0.392699 0 0
-0.294524 0 0
-0.294524 0 0
-0.19635 0 0
-0.19635 0 0
-0.0981748 0 0
-0.0981748 0 0
8.18545e-12 0 0
SCALARS potential double 1
LOOKUP_TABLE default
0 1.22888 1.22888 2.44812 2.44812 3.65773 3.65773 4.85769 4.85769 6.04802 6.04802 7.22871 7.22871 8.39976 8.39976 9.56117 9.56117 10.7129 10.7129 11.8551 11.8551 12.9876 12.9876 14.1104 14.1104 15.2237 15.2237 16.3272 16.3272 17.4212 17.4212 18.5055 18.5055 19.5802 19.5802 20.6452 20.6452 21.7006 21.7006 22.7463 22.7463 23.7824 23.7824 24.8089 24.8089 25.8258 25.8258 26.833 26.833 27.8305 27.8305 28.8184 28.8184 29.7967 29.7967 30.7654 30.7654 31.7244 31.7244 32.6738 32.6738 33.6135 33.6135 34.5436 34.5436 35.464 35.464 36.3748 36.3748 37.276 37.276 38.1676 38.1676 39.0495 39.0495 39.9217 39.9217 40.7844 40.7844 41.6373 41.6373 42.4807 42.4807 43.3144 43.3144 44.1385 44.1385 44.9529 44.9529 45.7577 45.7577 46.5529 46.5529 47.3384 47.3384 48.1143 48.1143 48.8805 48.8805 49.6371 49.6371 50.3841 50.3841 51.1214 51.1214 51.8491 51.8491 52.5671 52.5671 53.2756 53.2756 53.9743 53.9743 54.6635 54.6635 55.343 55.343 56.0128 56.0128 56.673 56.673 57.3236 57.3236 57.9646 57.9646 58.5959 58.5959 59.2175 59.2175 59.8296 59.8296 60.432 60.432 61.0247 61.0247 61.6078 61.6078 62.1813 62.1813 62.7452 62.7452 63.2994 63.2994 63.8439 63.8439 64.3788 64.3788 64.9041 64.9041 65.4198 65.4198 65.9258 65.9258 66.4221 66.4221 66.9089 66.9089 67.386 67.386 67.8534 67.8534 68.3112 68.3112 68.7594 68.7594 69.198 69.198 69.6269 69.6269 70.0461 70.0461 70.4558 70.4558 70.8558 70.8558 71.2461 71.2461 71.6268 71.6268 71.9979 71.9979 72.3593 72.3593 72.7111 72.7111 73.0533 73.0533 73.3858 73.3858 73.7087 73.7087 74.0219 74.0219 74.3255 74.3255 74.6195 74.6195 74.9038 74.9038 75.1785 75.1785 75.4436 75.4436 75.699 75.699 75.9447 75.9447 76.1809 76.1809 76.4074 76.4074 76.6242 76.6242 76.8315 76.8315 77.029 77.029 77.217 77.217 77.3953 77.3953 77.564 77.564 77.723 77.723 77.8724 77.8724 78.0121 78.0121 78.1423 78.1423 78.2627 78.2627 78.3736 78.3736 78.4748 78.4748 78.5663 78.5663 78.6483 78.6483 78.7206 78.7206 78.7832 78.7832 78.8362 78.8362 78.8796 78.8796 78.9133 78.9133 78.9374 78.9374 78.9519 78.9519 78.9567 
SCALARS x_coordinate double 1
LOOKUP_TABLE default
0 0.0981748 0.0981748 0.19635 0.19635 0.294524 0.294524 0.392699 0.392699 0.490874 0.490874 0.589049 0.589049 0.687223 0.687223 0.785398 0.785398 0.883573 0.883573 0.981748 0.981748 1.07992 1.07992 1.1781 1.1781 1.27627 1.27627 1.37445 1.37445 1.47262 1.47262 1.5708 1.5708 1.66897 1.66897 1.76715 1.76715 1.86532 1.86532 1.9635 1.9635 2.06167 2.06167 2.15984 2.15984 2.25802 2.25802 2.35619 2.35619 2.45437 2.45437 2.55254 2.55254 2.65072 2.65072 2.74889 2.74889 2.84707 2.84707 2.94524 2.94524 3.04342 3.04342 3.14159 3.14159 3.23977 3.23977 3.33794 3.33794 3.43612 3.43612 3.53429 3.53429 3.63247 3.63247 3.73064 3.73064 3.82882 3.82882 3.92699 3.92699 4.02517 4.02517 4.12334 4.12334 4.22152 4.22152 4.31969 4.31969 4.41786 4.41786 4.51604 4.51604 4.61421 4.61421 4.71239 4.71239 4.81056 4.81056 4.90874 4.90874 5.00691 5.00691 5.10509 5.10509 5.20326 5.20326 5.30144 5.30144 5.39961 5.39961 5.49779 5.49779 5.59596 5.59596 5.69414 5.69414 5.79231 5.79231 5.89049 5.89049 5.98866 5.98866 6.08684 6.08684 6.18501 6.18501 6.28319 6.28319 6.38136 6.38136 6.47953 6.47953 6.57771 6.57771 6.67588 6.67588 6.77406 6.77406 6.87223 6.87223 6.97041 6.97041 7.06858 7.06858 7.16676 7.16676 7.26493 7.26493 7.36311 7.36311 7.46128 7.46128 7.55946 7.55946 7.65763 7.65763 7.75581 7.75581 7.85398 7.85398 7.95216 7.95216 8.05033 8.05033 8.14851 8.14851 8.24668 8.24668 8.34486 8.34486 8.44303 8.44303 8.54121 8.54121 8.63938 8.63938 8.73755 8.73755 8.83573 8.83573 8.9339 8.9339 9.03208 9.03208 9.13025 9.13025 9.22843 9.22843 9.3266 9.3266 9.42478 9.42478 9.52295 9.52295 9.62113 9.62113 9.7193 9.7193 9.81748 9.81748 9.91565 9.91565 10.0138 10.0138 10.112 10.112 10.2102 10.2102 10.3084 10.3084 10.4065 10.4065 10.5047 10.5047 10.6029 10.6029 10.701 10.701 10.7992 10.7992 10.8974 10.8974 10.9956 10.9956 11.0937 11.0937 11.1919 11.1919 11.2901 11.2901 11.3883 11.3883 11.4864 11.4864 11.5846 11.5846 11.6828 11.6828 11.781 11.781 11.8791 11.8791 11.9773 11.9773 12.0755 12.0755 12.1737 12.1737 12.2718 12.2718 12.37 12.37 12.4682 12.4682 12.5664 
