# vtk DataFile Version 3.0
#This file was generated by the deal.II library on 2026/3/10 at 19:06:31
ASCII
DATASET UNSTRUCTURED_GRID

POINTS 512 double
0 0 0
0.0490874 0 0
0.0490874 0 0
0.0981748 0 0
0.0981748 0 0
0.147262 0 0
0.147262 0 0
0.19635 0 0
0.19635 0 0
0.245437 0 0
0.245437 0 0
0.294524 0 0
0.294524 0 0
0.343612 0 0
0.343612 0 0
0.392699 0 0
0.392699 0 0
0.441786 0 0
0.441786 0 0
0.490874 0 0
0.490874 0 0
0.539961 0 0
0.539961 0 0
0.589049 0 0
0.589049 0 0
0.638136 0 0
0.638136 0 0
0.687223 0 0
0.687223 0 0
0.736311 0 0
0.736311 0 0
0.785398 0 0
0.785398 0 0
0.834486 0 0
0.834486 0 0
0.883573 0 0
0.883573 0 0
0.93266 0 0
0.93266 0 0
0.981748 0 0
0.981748 0 0
1.03084 0 0
1.03084 0 0
1.07992 0 0
1.07992 0 0
1.12901 0 0
1.12901 0 0
1.1781 0 0
1.1781 0 0
1.22718 0 0
1.22718 0 0
1.27627 0 0
1.27627 0 0
1.32536 0 0
1.32536 0 0
1.37445 0 0
1.37445 0 0
1.42353 0 0
1.42353 0 0
1.47262 0 0
1.47262 0 0
1.52171 0 0
1.52171 0 0
1.5708 0 0
1.5708 0 0
1.61988 0 0
1.61988 0 0
1.66897 0 0
1.66897 0 0
1.71806 0 0
1.71806 0 0
1.76715 0 0
1.76715 0 0
1.81623 0 0
1.81623 0 0
1.86532 0 0
1.86532 0 0
1.91441 0 0
1.91441 0 0
1.9635 0 0
1.9635 0 0
2.01258 0 0
2.01258 0 0
2.06167 0 0
2.06167 0 0
2.11076 0 0
2.11076 0 0
2.15984 0 0
2.15984 0 0
2.20893 0 0
2.20893 0 0
2.25802 0 0
2.25802 0 0
2.30711 0 0
2.30711 0 0
2.35619 0 0
2.35619 0 0
2.40528 0 0
2.40528 0 0
2.45437 0 0
2.45437 0 0
2.50346 0 0
2.50346 0 0
2.55254 0 0
2.55254 0 0
2.60163 0 0
2.60163 0 0
2.65072 0 0
2.65072 0 0
2.69981 0 0
2.69981 0 0
2.74889 0 0
2.74889 0 0
2.79798 0 0
2.79798 0 0
2.84707 0 0
2.84707 0 0
2.89616 0 0
2.89616 0 0
2.94524 0 0
2.94524 0 0
2.99433 0 0
2.99433 0 0
3.04342 0 0
3.04342 0 0
3.09251 0 0
3.09251 0 0
3.14159 0 0
3.14159 0 0
3.19068 0 0
3.19068 0 0
3.23977 0 0
3.23977 0 0
3.28885 0 0
3.28885 0 0
3.33794 0 0
3.33794 0 0
3.38703 0 0
3.38703 0 0
3.43612 0 0
3.43612 0 0
3.4852 0 0
3.4852 0 0
3.53429 0 0
3.53429 0 0
3.58338 0 0
3.58338 0 0
3.63247 0 0
3.63247 0 0
3.68155 0 0
3.68155 0 0
3.73064 0 0
3.73064 0 0
3.77973 0 0
3.77973 0 0
3.82882 0 0
3.82882 0 0
3.8779 0 0
3.8779 0 0
3.92699 0 0
3.92699 0 0
3.97608 0 0
3.97608 0 0
4.02517 0 0
4.02517 0 0
4.07425 0 0
4.07425 0 0
4.12334 0 0
4.12334 0 0
4.17243 0 0
4.17243 0 0
4.22152 0 0
4.22152 0 0
4.2706 0 0
4.2706 0 0
4.31969 0 0
4.31969 0 0
4.36878 0 0
4.36878 0 0
4.41786 0 0
4.41786 0 0
4.46695 0 0
4.46695 0 0
4.51604 0 0
4.51604 0 0
4.56513 0 0
4.56513 0 0
4.61421 0 0
4.61421 0 0
4.6633 0 0
4.6633 0 0
4.71239 0 0
4.71239 0 0
4.76148 0 0
4.76148 0 0
4.81056 0 0
4.81056 0 0
4.85965 0 0
4.85965 0 0
4.90874 0 0
4.90874 0 0
4.95783 0 0
4.95783 0 0
5.00691 0 0
5.00691 0 0
5.056 0 0
5.056 0 0
5.10509 0 0
5.10509 0 0
5.15418 0 0
5.15418 0 0
5.20326 0 0
5.20326 0 0
5.25235 0 0
5.25235 0 0
5.30144 0 0
5.30144 0 0
5.35052 0 0
5.35052 0 0
5.39961 0 0
5.39961 0 0
5.4487 0 0
5.4487 0 0
5.49779 0 0
5.49779 0 0
5.54687 0 0
5.54687 0 0
5.59596 0 0
5.59596 0 0
5.64505 0 0
5.64505 0 0
5.69414 0 0
5.69414 0 0
5.74322 0 0
5.74322 0 0
5.79231 0 0
5.79231 0 0
5.8414 0 0
5.8414 0 0
5.89049 0 0
5.89049 0 0
5.93957 0 0
5.93957 0 0
5.98866 0 0
5.98866 0 0
6.03775 0 0
6.03775 0 0
6.08684 0 0
6.08684 0 0
6.13592 0 0
6.13592 0 0
6.18501 0 0
6.18501 0 0
6.2341 0 0
6.2341 0 0
6.28319 0 0
6.28319 0 0
6.33227 0 0
6.33227 0 0
6.38136 0 0
6.38136 0 0
6.43045 0 0
6.43045 0 0
6.47953 0 0
6.47953 0 0
6.52862 0 0
6.52862 0 0
6.57771 0 0
6.57771 0 0
6.6268 0 0
6.6268 0 0
6.67588 0 0
6.67588 0 0
6.72497 0 0
6.72497 0 0
6.77406 0 0
6.77406 0 0
6.82315 0 0
6.82315 0 0
6.87223 0 0
6.87223 0 0
6.92132 0 0
6.92132 0 0
6.97041 0 0
6.97041 0 0
7.0195 0 0
7.0195 0 0
7.06858 0 0
7.06858 0 0
7.11767 0 0
7.11767 0 0
7.16676 0 0
7.16676 0 0
7.21585 0 0
7.21585 0 0
7.26493 0 0
7.26493 0 0
7.31402 0 0
7.31402 0 0
7.36311 0 0
7.36311 0 0
7.4122 0 0
7.4122 0 0
7.46128 0 0
7.46128 0 0
7.51037 0 0
7.51037 0 0
7.55946 0 0
7.55946 0 0
7.60854 0 0
7.60854 0 0
7.65763 0 0
7.65763 0 0
7.70672 0 0
7.70672 0 0
7.75581 0 0
7.75581 0 0
7.80489 0 0
7.80489 0 0
7.85398 0 0
7.85398 0 0
7.90307 0 0
7.90307 0 0
7.95216 0 0
7.95216 0 0
8.00124 0 0
8.00124 0 0
8.05033 0 0
8.05033 0 0
8.09942 0 0
8.09942 0 0
8.14851 0 0
8.14851 0 0
8.19759 0 0
8.19759 0 0
8.24668 0 0
8.24668 0 0
8.29577 0 0
8.29577 0 0
8.34486 0 0
8.34486 0 0
8.39394 0 0
8.39394 0 0
8.44303 0 0
8.44303 0 0
8.49212 0 0
8.49212 0 0
8.54121 0 0
8.54121 0 0
8.59029 0 0
8.59029 0 0
8.63938 0 0
8.63938 0 0
8.68847 0 0
8.68847 0 0
8.73755 0 0
8.73755 0 0
8.78664 0 0
8.78664 0 0
8.83573 0 0
8.83573 0 0
8.88482 0 0
8.88482 0 0
8.9339 0 0
8.9339 0 0
8.98299 0 0
8.98299 0 0
9.03208 0 0
9.03208 0 0
9.08117 0 0
9.08117 0 0
9.13025 0 0
9.13025 0 0
9.17934 0 0
9.17934 0 0
9.22843 0 0
9.22843 0 0
9.27752 0 0
9.27752 0 0
9.3266 0 0
9.3266 0 0
9.37569 0 0
9.37569 0 0
9.42478 0 0
9.42478 0 0
9.47387 0 0
9.47387 0 0
9.52295 0 0
9.52295 0 0
9.57204 0 0
9.57204 0 0
9.62113 0 0
9.62113 0 0
9.67021 0 0
9.67021 0 0
9.7193 0 0
9.7193 0 0
9.76839 0 0
9.76839 0 0
9.81748 0 0
9.81748 0 0
9.86656 0 0
9.86656 0 0
9.91565 0 0
9.91565 0 0
9.96474 0 0
9.96474 0 0
10.0138 0 0
10.0138 0 0
10.0629 0 0
10.0629 0 0
10.112 0 0
10.112 0 0
10.1611 0 0
10.1611 0 0
10.2102 0 0
10.2102 0 0
10.2593 0 0
10.2593 0 0
10.3084 0 0
10.3084 0 0
10.3574 0 0
10.3574 0 0
10.4065 0 0
10.4065 0 0
10.4556 0 0
10.4556 0 0
10.5047 0 0
10.5047 0 0
10.5538 0 0
10.5538 0 0
10.6029 0 0
10.6029 0 0
10.652 0 0
10.652 0 0
10.701 0 0
10.701 0 0
10.7501 0 0
10.7501 0 0
10.7992 0 0
10.7992 0 0
10.8483 0 0
10.8483 0 0
10.8974 0 0
10.8974 0 0
10.9465 0 0
10.9465 0 0
10.9956 0 0
10.9956 0 0
11.0447 0 0
11.0447 0 0
11.0937 0 0
11.0937 0 0
11.1428 0 0
11.1428 0 0
11.1919 0 0
11.1919 0 0
11.241 0 0
11.241 0 0
11.2901 0 0
11.2901 0 0
11.3392 0 0
11.3392 0 0
11.3883 0 0
11.3883 0 0
11.4374 0 0
11.4374 0 0
11.4864 0 0
11.4864 0 0
11.5355 0 0
11.5355 0 0
11.5846 0 0
11.5846 0 0
11.6337 0 0
11.6337 0 0
11.6828 0 0
11.6828 0 0
11.7319 0 0
11.7319 0 0
11.781 0 0
11.781 0 0
11.8301 0 0
11.8301 0 0
11.8791 0 0
11.8791 0 0
11.9282 0 0
11.9282 0 0
11.9773 0 0
11.9773 0 0
12.0264 0 0
12.0264 0 0
12.0755 0 0
12.0755 0 0
12.1246 0 0
12.1246 0 0
12.1737 0 0
12.1737 0 0
12.2228 0 0
12.2228 0 0
12.2718 0 0
12.2718 0 0
12.3209 0 0
12.3209 0 0
12.37 0 0
12.37 0 0
12.4191 0 0
12.4191 0 0
12.4682 0 0
12.4682 0 0
12.5173 0 0
12.5173 0 0
12.5664 0 0

CELLS 256 768
2	0	1
2	2	3
2	4	5
2	6	7
2	8	9
2	10	11
2	12	13
2	14	15
2	16	17
2	18	19
2	20	21
2	22	23
2	24	25
2	26	27
2	28	29
2	30	31
2	32	33
2	34	35
2	36	37
2	38	39
2	40	41
2	42	43
2	44	45
2	46	47
2	48	49
2	50	51
2	52	53
2	54	55
2	56	57
2	58	59
2	60	61
2	62	63
2	64	65
2	66	67
2	68	69
2	70	71
2	72	73
2	74	75
2	76	77
2	78	79
2	80	81
2	82	83
2	84	85
2	86	87
2	88	89
2	90	91
2	92	93
2	94	95
2	96	97
2	98	99
2	100	101
2	102	103
2	104	105
2	106	107
2	108	109
2	110	111
2	112	113
2	114	115
2	116	117
2	118	119
2	120	121
2	122	123
2	124	125
2	126	127
2	128	129
2	130	131
2	132	133
2	134	135
2	136	137
2	138	139
2	140	141
2	142	143
2	144	145
2	146	147
2	148	149
2	150	151
2	152	153
2	154	155
2	156	157
2	158	159
2	160	161
2	162	163
2	164	165
2	166	167
2	168	169
2	170	171
2	172	173
2	174	175
2	176	177
2	178	179
2	180	181
2	182	183
2	184	185
2	186	187
2	188	189
2	190	191
2	192	193
2	194	195
2	196	197
2	198	199
2	200	201
2	202	203
2	204	205
2	206	207
2	208	209
2	210	211
2	212	213
2	214	215
2	216	217
2	218	219
2	220	221
2	222	223
2	224	225
2	226	227
2	228	229
2	230	231
2	232	233
2	234	235
2	236	237
2	238	239
2	240	241
2	242	243
2	244	245
2	246	247
2	248	249
2	250	251
2	252	253
2	254	255
2	256	257
2	258	259
2	260	261
2	262	263
2	264	265
2	266	267
2	268	269
2	270	271
2	272	273
2	274	275
2	276	277
2	278	279
2	280	281
2	282	283
2	284	285
2	286	287
2	288	289
2	290	291
2	292	293
2	294	295
2	296	297
2	298	299
2	300	301
2	302	303
2	304	305
2	306	307
2	308	309
2	310	311
2	312	313
2	314	315
2	316	317
2	318	319
2	320	321
2	322	323
2	324	325
2	326	327
2	328	329
2	330	331
2	332	333
2	334	335
2	336	337
2	338	339
2	340	341
2	342	343
2	344	345
2	346	347
2	348	349
2	350	351
2	352	353
2	354	355
2	356	357
2	358	359
2	360	361
2	362	363
2	364	365
2	366	367
2	368	369
2	370	371
2	372	373
2	374	375
2	376	377
2	378	379
2	380	381
2	382	383
2	384	385
2	386	387
2	388	389
2	390	391
2	392	393
2	394	395
2	396	397
2	398	399
2	400	401
2	402	403
2	404	405
2	406	407
2	408	409
2	410	411
2	412	413
2	414	415
2	416	417
2	418	419
2	420	421
2	422	423
2	424	425
2	426	427
2	428	429
2	430	431
2	432	433
2	434	435
2	436	437
2	438	439
2	440	441
2	442	443
2	444	445
2	446	447
2	448	449
2	450	451
2	452	453
2	454	455
2	456	457
2	458	459
2	460	461
2	462	463
2	464	465
2	466	467
2	468	469
2	470	471
2	472	473
2	474	475
2	476	477
2	478	479
2	480	481
2	482	483
2	484	485
2	486	487
2	488	489
2	490	491
2	492	493
2	494	495
2	496	497
2	498	499
2	500	501
2	502	503
2	504	505
2	506	507
2	508	509
2	510	511

CELL_TYPES 256
 3 3 3 3 3 3 3 3 3 3 3 3 3 3 3 3 3 3 3 3 3 3 3 3 3 3 3 3 3 3 3 3 3 3 3 3 3 3 3 3 3 3 3 3 3 3 3 3 3 3 3 3 3 3 3 3 3 3 3 3 3 3 3 3 3 3 3 3 3 3 3 3 3 3 3 3 3 3 3 3 3 3 3 3 3 3 3 3 3 3 3 3 3 3 3 3 3 3 3 3 3 3 3 3 3 3 3 3 3 3 3 3 3 3 3 3 3 3 3 3 3 3 3 3 3 3 3 3 3 3 3 3 3 3 3 3 3 3 3 3 3 3 3 3 3 3 3 3 3 3 3 3 3 3 3 3 3 3 3 3 3 3 3 3 3 3 3 3 3 3 3 3 3 3 3 3 3 3 3 3 3 3 3 3 3 3 3 3 3 3 3 3 3 3 3 3 3 3 3 3 3 3 3 3 3 3 3 3 3 3 3 3 3 3 3 3 3 3 3 3 3 3 3 3 3 3 3 3 3 3 3 3 3 3 3 3 3 3 3 3 3 3 3 3 3 3 3 3 3 3 3 3 3 3 3 3
POINT_DATA 512
VECTORS electric_field double
-11.7135 0 0
-11.6644 0 0
-11.6644 0 0
-11.6153 0 0
-11.6153 0 0
-11.5662 0 0
-11.5662 0 0
-11.5171 0 0
-11.5171 0 0
-11.4681 0 0
-11.4681 0 0
-11.419 0 0
-11.419 0 0
-11.3699 0 0
-11.3699 0 0
-11.3208 0 0
-11.3208 0 0
-11.2717 0 0
-11.2717 0 0
-11.2226 0 0
-11.2226 0 0
-11.1735 0 0
-11.1735 0 0
-11.1244 0 0
-11.1244 0 0
-11.0754 0 0
-11.0754 0 0
-11.0263 0 0
-11.0263 0 0
-10.9772 0 0
-10.9772 0 0
-10.9281 0 0
-10.9281 0 0
-10.879 0 0
-10.879 0 0
-10.8299 0 0
-10.8299 0 0
-10.7808 0 0
-10.7808 0 0
-10.7317 0 0
-10.7317 0 0
-10.6827 0 0
-10.6827 0 0
-10.6336 0 0
-10.6336 0 0
-10.5845 0 0
-10.5845 0 0
-10.5354 0 0
-10.5354 0 0
-10.4863 0 0
-10.4863 0 0
-10.4372 0 0
-10.4372 0 0
-10.3881 0 0
-10.3881 0 0
-10.339 0 0
-10.339 0 0
-10.29 0 0
-10.29 0 0
-10.2409 0 0
-10.2409 0 0
-10.1918 0 0
-10.1918 0 0
-10.1427 0 0
-10.1427 0 0
-10.0936 0 0
-10.0936 0 0
-10.0445 0 0
-10.0445 0 0
-9.99543 0 0
-9.99543 0 0
-9.94634 0 0
-9.94634 0 0
-9.89725 0 0
-9.89725 0 0
-9.84817 0 0
-9.84817 0 0
-9.79908 0 0
-9.79908 0 0
-9.74999 0 0
-9.74999 0 0
-9.7009 0 0
-9.7009 0 0
-9.65182 0 0
-9.65182 0 0
-9.60273 0 0
-9.60273 0 0
-9.55364 0 0
-9.55364 0 0
-9.50455 0 0
-9.50455 0 0
-9.45547 0 0
-9.45547 0 0
-9.40638 0 0
-9.40638 0 0
-9.35729 0 0
-9.35729 0 0
-9.30821 0 0
-9.30821 0 0
-9.25912 0 0
-9.25912 0 0
-9.21003 0 0
-9.21003 0 0
-9.16094 0 0
-9.16094 0 0
-9.11186 0 0
-9.11186 0 0
-9.06277 0 0
-9.06277 0 0
-9.01368 0 0
-9.01368 0 0
-8.96459 0 0
-8.96459 0 0
-8.91551 0 0
-8.91551 0 0
-8.86642 0 0
-8.86642 0 0
-8.81733 0 0
-8.81733 0 0
-8.76824 0 0
-8.76824 0 0
-8.71916 0 0
-8.71916 0 0
-8.67007 0 0
-8.67007 0 0
-8.62098 0 0
-8.62098 0 0
-8.57189 0 0
-8.57189 0 0
-8.52281 0 0
-8.52281 0 0
-8.47372 0 0
-8.47372 0 0
-8.42463 0 0
-8.42463 0 0
-8.37554 0 0
-8.37554 0 0
-8.32646 0 0
-8.32646 0 0
-8.27737 0 0
-8.27737 0 0
-8.22828 0 0
-8.22828 0 0
-8.1792 0 0
-8.1792 0 0
-8.13011 0 0
-8.13011 0 0
-8.08102 0 0
-8.08102 0 0
-8.03193 0 0
-8.03193 0 0
-7.98285 0 0
-7.98285 0 0
-7.93376 0 0
-7.93376 0 0
-7.88467 0 0
-7.88467 0 0
-7.83558 0 0
-7.83558 0 0
-7.7865 0 0
-7.7865 0 0
-7.73741 0 0
-7.73741 0 0
-7.68832 0 0
-7.68832 0 0
-7.63923 0 0
-7.63923 0 0
-7.59015 0 0
-7.59015 0 0
-7.54106 0 0
-7.54106 0 0
-7.49197 0 0
-7.49197 0 0
-7.44288 0 0
-7.44288 0 0
-7.3938 0 0
-7.3938 0 0
-7.34471 0 0
-7.34471 0 0
-7.29562 0 0
-7.29562 0 0
-7.24654 0 0
-7.24654 0 0
-7.19745 0 0
-7.19745 0 0
-7.14836 0 0
-7.14836 0 0
-7.09927 0 0
-7.09927 0 0
-7.05019 0 0
-7.05019 0 0
-7.0011 0 0
-7.0011 0 0
-6.95201 0 0
-6.95201 0 0
-6.90292 0 0
-6.90292 0 0
-6.85384 0 0
-6.85384 0 0
-6.80475 0 0
-6.80475 0 0
-6.75566 0 0
-6.75566 0 0
-6.70657 0 0
-6.70657 0 0
-6.65749 0 0
-6.65749 0 0
-6.6084 0 0
-6.6084 0 0
-6.55931 0 0
-6.55931 0 0
-6.51022 0 0
-6.51022 0 0
-6.46114 0 0
-6.46114 0 0
-6.41205 0 0
-6.41205 0 0
-6.36296 0 0
-6.36296 0 0
-6.31387 0 0
-6.31387 0 0
-6.26479 0 0
-6.26479 0 0
-6.2157 0 0
-6.2157 0 0
-6.16661 0 0
-6.16661 0 0
-6.11753 0 0
-6.11753 0 0
-6.06844 0 0
-6.06844 0 0
-6.01935 0 0
-6.01935 0 0
-5.97026 0 0
-5.97026 0 0
-5.92118 0 0
-5.92118 0 0
-5.87209 0 0
-5.87209 0 0
-5.823 0 0
-5.823 0 0
-5.77391 0 0
-5.77391 0 0
-5.72483 0 0
-5.72483 0 0
-5.67574 0 0
-5.67574 0 0
-5.62665 0 0
-5.62665 0 0
-5.57756 0 0
-5.57756 0 0
-5.52848 0 0
-5.52848 0 0
-5.47939 0 0
-5.47939 0 0
-5.4303 0 0
-5.4303 0 0
-5.38121 0 0
-5.38121 0 0
-5.33213 0 0
-5.33213 0 0
-5.28304 0 0
-5.28304 0 0
-5.23395 0 0
-5.23395 0 0
-5.18486 0 0
-5.18486 0 0
-5.13578 0 0
-5.13578 0 0
-5.08669 0 0
-5.08669 0 0
-5.0376 0 0
-5.0376 0 0
-4.98852 0 0
-4.98852 0 0
-4.93943 0 0
-4.93943 0 0
-4.89034 0 0
-4.89034 0 0
-4.84125 0 0
-4.84125 0 0
-4.79217 0 0
-4.79217 0 0
-4.74308 0 0
-4.74308 0 0
-4.69399 0 0
-4.69399 0 0
-4.6449 0 0
-4.6449 0 0
-4.59582 0 0
-4.59582 0 0
-4.54673 0 0
-4.54673 0 0
-4.49764 0 0
-4.49764 0 0
-4.44855 0 0
-4.44855 0 0
-4.39947 0 0
-4.39947 0 0
-4.35038 0 0
-4.35038 0 0
-4.30129 0 0
-4.30129 0 0
-4.2522 0 0
-4.2522 0 0
-4.20312 0 0
-4.20312 0 0
-4.15403 0 0
-4.15403 0 0
-4.10494 0 0
-4.10494 0 0
-4.05586 0 0
-4.05586 0 0
-4.00677 0 0
-4.00677 0 0
-3.95768 0 0
-3.95768 0 0
-3.90859 0 0
-3.90859 0 0
-3.85951 0 0
-3.85951 0 0
-3.81042 0 0
-3.81042 0 0
-3.76133 0 0
-3.76133 0 0
-3.71224 0 0
-3.71224 0 0
-3.66316 0 0
-3.66316 0 0
-3.61407 0 0
-3.61407 0 0
-3.56498 0 0
-3.56498 0 0
-3.51589 0 0
-3.51589 0 0
-3.46681 0 0
-3.46681 0 0
-3.41772 0 0
-3.41772 0 0
-3.36863 0 0
-3.36863 0 0
-3.31954 0 0
-3.31954 0 0
-3.27046 0 0
-3.27046 0 0
-3.22137 0 0
-3.22137 0 0
-3.17228 0 0
-3.17228 0 0
-3.12319 0 0
-3.12319 0 0
-3.07411 0 0
-3.07411 0 0
-3.02502 0 0
-3.02502 0 0
-2.97593 0 0
-2.97593 0 0
-2.92685 0 0
-2.92685 0 0
-2.87776 0 0
-2.87776 0 0
-2.82867 0 0
-2.82867 0 0
-2.77958 0 0
-2.77958 0 0
-2.7305 0 0
-2.7305 0 0
-2.68141 0 0
-2.68141 0 0
-2.63232 0 0
-2.63232 0 0
-2.58323 0 0
-2.58323 0 0
-2.53415 0 0
-2.53415 0 0
-2.48506 0 0
-2.48506 0 0
-2.43597 0 0
-2.43597 0 0
-2.38688 0 0
-2.38688 0 0
-2.3378 0 0
-2.338 0 0
-2.2963 0 0
-2.29421 0 0
-2.24512 0 0
-2.24512 0 0
-2.19603 0 0
-2.19603 0 0
-2.14694 0 0
-2.14694 0 0
-2.09786 0 0
-2.09763 0 0
-2.04987 0 0
-2.05053 0 0
-2.00144 0 0
-2.00166 0 0
-1.95328 0 0
-1.95354 0 0
-1.90678 0 0
-1.90633 0 0
-1.85872 0 0
-1.85943 0 0
-1.8121 0 0
-1.81176 0 0
-1.76268 0 0
-1.76345 0 0
-1.71591 0 0
-1.71565 0 0
-1.66656 0 0
-1.66657 0 0
-1.61793 0 0
-1.61893 0 0
-1.57295 0 0
-1.57253 0 0
-1.52345 0 0
-1.52434 0 0
-1.47706 0 0
-1.47676 0 0
-1.42767 0 0
-1.42737 0 0
-1.38062 0 0
-1.38108 0 0
-1.33199 0 0
-1.33202 0 0
-1.28384 0 0
-1.28358 0 0
-1.2345 0 0
-1.23451 0 0
-1.18542 0 0
-1.18549 0 0
-1.13655 0 0
-1.13645 0 0
-1.08781 0 0
-1.08803 0 0
-1.03894 0 0
-1.03898 0 0
-0.991242 0 0
-0.990814 0 0
-0.942818 0 0
-0.942759 0 0
-0.899473 0 0
-0.899865 0 0
-0.855041 0 0
-0.855048 0 0
-0.810798 0 0
-0.810809 0 0
-0.767238 0 0
-0.767235 0 0
-0.728684 0 0
-0.72859 0 0
-0.697062 0 0
-0.697442 0 0
-0.67041 0 0
-0.670164 0 0
-0.64908 0 0
-0.64911 0 0
-0.632438 0 0
-0.632351 0 0
-0.616982 0 0
-0.61713 0 0
-0.600949 0 0
-0.60117 0 0
-0.585677 0 0
-0.585172 0 0
-0.567818 0 0
-0.567673 0 0
-0.550004 0 0
-0.549958 0 0
-0.531451 0 0
-0.531494 0 0
-0.512291 0 0
-0.512218 0 0
-0.491524 0 0
-0.491651 0 0
-0.470962 0 0
-0.470899 0 0
-0.451115 0 0
-0.451031 0 0
-0.430266 0 0
-0.430178 0 0
-0.409008 0 0
-0.408965 0 0
-0.386907 0 0
-0.386894 0 0
-0.363751 0 0
-0.363792 0 0
-0.339984 0 0
-0.339984 0 0
-0.316057 0 0
-0.316061 0 0
-0.291862 0 0
-0.291859 0 0
-0.267642 0 0
-0.267642 0 0
-0.243428 0 0
-0.243428 0 0
-0.219215 0 0
-0.219215 0 0
-0.195005 0 0
-0.195005 0 0
-0.170795 0 0
-0.170795 0 0
-0.146587 0 0
-0.146587 0 0
-0.12238 0 0
-0.12238 0 0
-0.0981747 0 0
-0.0981748 0 0
-0.0490874 0 0
-0.0490874 0 0
-2.18279e-11 0 0
SCALARS potential double 1
LOOKUP_TABLE default
0 0.57378 0.57378 1.14515 1.14515 1.71411 1.71411 2.28066 2.28066 2.8448 2.8448 3.40653 3.40653 3.96586 3.96586 4.52277 4.52277 5.07727 5.07727 5.62937 5.62937 6.17905 6.17905 6.72632 6.72632 7.27119 7.27119 7.81364 7.81364 8.35369 8.35369 8.89133 8.89133 9.42655 9.42655 9.95937 9.95937 10.4898 10.4898 11.0178 11.0178 11.5434 11.5434 12.0665 12.0665 12.5873 12.5873 13.1057 13.1057 13.6216 13.6216 14.1352 14.1352 14.6463 14.6463 15.155 15.155 15.6613 15.6613 16.1652 16.1652 16.6667 16.6667 17.1658 17.1658 17.6625 17.6625 18.1567 18.1567 18.6486 18.6486 19.138 19.138 19.6251 19.6251 20.1097 20.1097 20.5919 20.5919 21.0717 21.0717 21.5491 21.5491 22.0241 22.0241 22.4967 22.4967 22.9669 22.9669 23.4346 23.4346 23.9 23.9 24.3629 24.3629 24.8234 24.8234 25.2815 25.2815 25.7373 25.7373 26.1906 26.1906 26.6415 26.6415 27.0899 27.0899 27.536 27.536 27.9797 27.9797 28.4209 28.4209 28.8598 28.8598 29.2962 29.2962 29.7302 29.7302 30.1618 30.1618 30.591 30.591 31.0178 31.0178 31.4422 31.4422 31.8642 31.8642 32.2838 32.2838 32.7009 32.7009 33.1157 33.1157 33.528 33.528 33.9379 33.9379 34.3455 34.3455 34.7506 34.7506 35.1533 35.1533 35.5536 35.5536 35.9514 35.9514 36.3469 36.3469 36.74 36.74 37.1306 37.1306 37.5189 37.5189 37.9047 37.9047 38.2881 38.2881 38.6691 38.6691 39.0477 39.0477 39.4239 39.4239 39.7977 39.7977 40.1691 40.1691 40.5381 40.5381 40.9046 40.9046 41.2688 41.2688 41.6305 41.6305 41.9898 41.9898 42.3468 42.3468 42.7013 42.7013 43.0534 43.0534 43.4031 43.4031 43.7503 43.7503 44.0952 44.0952 44.4377 44.4377 44.7777 44.7777 45.1154 45.1154 45.4506 45.4506 45.7834 45.7834 46.1138 46.1138 46.4418 46.4418 46.7674 46.7674 47.0906 47.0906 47.4114 47.4114 47.7297 47.7297 48.0457 48.0457 48.3592 48.3592 48.6704 48.6704 48.9791 48.9791 49.2854 49.2854 49.5893 49.5893 49.8908 49.8908 50.1899 50.1899 50.4866 50.4866 50.7809 50.7809 51.0727 51.0727 51.3622 51.3622 51.6492 51.6492 51.9339 51.9339 52.2161 52.2161 52.4959 52.4959 52.7733 52.7733 53.0483 53.0483 53.3209 53.3209 53.591 53.591 53.8588 53.8588 54.1242 54.1242 54.3871 54.3871 54.6476 54.6476 54.9058 54.9058 55.1615 55.1615 55.4148 55.4148 55.6657 55.6657 55.9142 55.9142 56.1602 56.1602 56.4039 56.4039 56.6452 56.6452 56.884 56.884 57.1205 57.1205 57.3545 57.3545 57.5861 57.5861 57.8153 57.8153 58.0421 58.0421 58.2665 58.2665 58.4885 58.4885 58.7081 58.7081 58.9252 58.9252 59.14 59.14 59.3523 59.3523 59.5623 59.5623 59.7698 59.7698 59.9749 59.9749 60.1776 60.1776 60.3779 60.3779 60.5758 60.5758 60.7713 60.7713 60.9643 60.9643 61.155 61.155 61.3432 61.3432 61.5291 61.5291 61.7125 61.7125 61.8935 61.8935 62.0721 62.0721 62.2483 62.2483 62.4221 62.4221 62.5935 62.5935 62.7625 62.7625 62.9291 62.9291 63.0932 63.0932 63.2549 63.2549 63.4143 63.4143 63.5712 63.5712 63.7257 63.7257 63.8778 63.8778 64.0275 64.0275 64.1748 64.1748 64.3197 64.3197 64.4621 64.4621 64.6022 64.6022 64.7399 64.7399 64.8751 64.8751 65.0079 65.0079 65.1383 65.1383 65.2663 65.2663 65.3919 65.3919 65.5151 65.5151 65.6359 65.6359 65.7543 65.7543 65.8702 65.8702 65.9839 65.9839 66.0953 66.0953 66.2043 66.2043 66.3109 66.3109 66.415 66.415 66.5168 66.5168 66.6163 66.6163 66.7133 66.7133 66.8081 66.8081 66.9005 66.9005 66.9905 66.9905 67.0783 67.0783 67.1637 67.1637 67.2467 67.2467 67.3273 67.3273 67.4057 67.4057 67.4817 67.4817 67.5554 67.5554 67.6267 67.6267 67.6956 67.6956 67.7622 67.7622 67.8264 67.8264 67.8882 67.8882 67.9476 67.9476 68.0046 68.0046 68.0591 68.0591 68.1113 68.1113 68.1611 68.1611 68.2086 68.2086 68.2538 68.2538 68.2969 68.2969 68.3378 68.3378 68.3765 68.3765 68.4132 68.4132 68.4481 68.4481 68.4817 68.4817 68.5141 68.5141 68.5455 68.5455 68.5762 68.5762 68.6061 68.6061 68.6352 68.6352 68.6635 68.6635 68.6909 68.6909 68.7175 68.7175 68.7431 68.7431 68.7678 68.7678 68.7914 68.7914 68.814 68.814 68.8357 68.8357 68.8563 68.8563 68.8758 68.8758 68.8942 68.8942 68.9115 68.9115 68.9276 68.9276 68.9425 68.9425 68.9562 68.9562 68.9688 68.9688 68.9801 68.9801 68.9903 68.9903 68.9993 68.9993 69.0071 69.0071 69.0137 69.0137 69.0191 69.0191 69.0227 69.0227 69.0239 
SCALARS x_coordinate double 1
LOOKUP_TABLE default
0 0.0490874 0.0490874 0.0981748 0.0981748 0.147262 0.147262 0.19635 0.19635 0.245437 0.245437 0.294524 0.294524 0.343612 0.343612 0.392699 0.392699 0.441786 0.441786 0.490874 0.490874 0.539961 0.539961 0.589049 0.589049 0.638136 0.638136 0.687223 0.687223 0.736311 0.736311 0.785398 0.785398 0.834486 0.834486 0.883573 0.883573 0.93266 0.93266 0.981748 0.981748 1.03084 1.03084 1.07992 1.07992 1.12901 1.12901 1.1781 1.1781 1.22718 1.22718 1.27627 1.27627 1.32536 1.32536 1.37445 1.37445 1.42353 1.42353 1.47262 1.47262 1.52171 1.52171 1.5708 1.5708 1.61988 1.61988 1.66897 1.66897 1.71806 1.71806 1.76715 1.76715 1.81623 1.81623 1.86532 1.86532 1.91441 1.91441 1.9635 1.9635 2.01258 2.01258 2.06167 2.06167 2.11076 2.11076 2.15984 2.15984 2.20893 2.20893 2.25802 2.25802 2.30711 2.30711 2.35619 2.35619 2.40528 2.40528 2.45437 2.45437 2.50346 2.50346 2.55254 2.55254 2.60163 2.60163 2.65072 2.65072 2.69981 2.69981 2.74889 2.74889 2.79798 2.79798 2.84707 2.84707 2.89616 2.89616 2.94524 2.94524 2.99433 2.99433 3.04342 3.04342 3.09251 3.09251 3.14159 3.14159 3.19068 3.19068 3.23977 3.23977 3.28885 3.28885 3.33794 3.33794 3.38703 3.38703 3.43612 3.43612 3.4852 3.4852 3.53429 3.53429 3.58338 3.58338 3.63247 3.63247 3.68155 3.68155 3.73064 3.73064 3.77973 3.77973 3.82882 3.82882 3.8779 3.8779 3.92699 3.92699 3.97608 3.97608 4.02517 4.02517 4.07425 4.07425 4.12334 4.12334 4.17243 4.17243 4.22152 4.22152 4.2706 4.2706 4.31969 4.31969 4.36878 4.36878 4.41786 4.41786 4.46695 4.46695 4.51604 4.51604 4.56513 4.56513 4.61421 4.61421 4.6633 4.6633 4.71239 4.71239 4.76148 4.76148 4.81056 4.81056 4.85965 4.85965 4.90874 4.90874 4.95783 4.95783 5.00691 5.00691 5.056 5.056 5.10509 5.10509 5.15418 5.15418 5.20326 5.20326 5.25235 5.25235 5.30144 5.30144 5.35052 5.35052 5.39961 5.39961 5.4487 5.4487 5.49779 5.49779 5.54687 5.54687 5.59596 5.59596 5.64505 5.64505 5.69414 5.69414 5.74322 5.74322 5.79231 5.79231 5.8414 5.8414 5.89049 5.89049 5.93957 5.93957 5.98866 5.98866 6.03775 6.03775 6.08684 6.08684 6.13592 6.13592 6.18501 6.18501 6.2341 6.2341 6.28319 6.28319 6.33227 6.33227 6.38136 6.38136 6.43045 6.43045 6.47953 6.47953 6.52862 6.52862 6.57771 6.57771 6.6268 6.6268 6.67588 6.67588 6.72497 6.72497 6.77406 6.77406 6.82315 6.82315 6.87223 6.87223 6.92132 6.92132 6.97041 6.97041 7.0195 7.0195 7.06858 7.06858 7.11767 7.11767 7.16676 7.16676 7.21585 7.21585 7.26493 7.26493 7.31402 7.31402 7.36311 7.36311 7.4122 7.4122 7.46128 7.46128 7.51037 7.51037 7.55946 7.55946 7.60854 7.60854 7.65763 7.65763 7.70672 7.70672 7.75581 7.75581 7.80489 7.80489 7.85398 7.85398 7.90307 7.90307 7.95216 7.95216 8.00124 8.00124 8.05033 8.05033 8.09942 8.09942 8.14851 8.14851 8.19759 8.19759 8.24668 8.24668 8.29577 8.29577 8.34486 8.34486 8.39394 8.39394 8.44303 8.44303 8.49212 8.49212 8.54121 8.54121 8.59029 8.59029 8.63938 8.63938 8.68847 8.68847 8.73755 8.73755 8.78664 8.78664 8.83573 8.83573 8.88482 8.88482 8.9339 8.9339 8.98299 8.98299 9.03208 9.03208 9.08117 9.08117 9.13025 9.13025 9.17934 9.17934 9.22843 9.22843 9.27752 9.27752 9.3266 9.3266 9.37569 9.37569 9.42478 9.42478 9.47387 9.47387 9.52295 9.52295 9.57204 9.57204 9.62113 9.62113 9.67021 9.67021 9.7193 9.7193 9.76839 9.76839 9.81748 9.81748 9.86656 9.86656 9.91565 9.91565 9.96474 9.96474 10.0138 10.0138 10.0629 10.0629 10.112 10.112 10.1611 10.1611 10.2102 10.2102 10.2593 10.2593 10.3084 10.3084 10.3574 10.3574 10.4065 10.4065 10.4556 10.4556 10.5047 10.5047 10.5538 10.5538 10.6029 10.6029 10.652 10.652 10.701 10.701 10.7501 10.7501 10.7992 10.7992 10.8483 10.8483 10.8974 10.8974 10.9465 10.9465 10.9956 10.9956 11.0447 11.0447 11.0937 11.0937 11.1428 11.1428 11.1919 11.1919 11.241 11.241 11.2901 11.2901 11.3392 11.3392 11.3883 11.3883 11.4374 11.4374 11.4864 11.4864 11.5355 11.5355 11.5846 11.5846 11.6337 11.6337 11.6828 11.6828 11.7319 11.7319 11.781 11.781 11.8301 11.8301 11.8791 11.8791 11.9282 11.9282 11.9773 11.9773 12.0264 12.0264 12.0755 12.0755 12.1246 12.1246 12.1737 12.1737 12.2228 12.2228 12.2718 12.2718 12.3209 12.3209 12.37 12.37 12.4191 12.4191 12.4682 12.4682 12.5173 12.5173 12.5664 
