# vtk DataFile Version 3.0
#This file was generated by the deal.II library on 2026/3/10 at 19:07:05
ASCII
DATASET UNSTRUCTURED_GRID

POINTS 512 double
0 0 0
0.0490874 0 0
0.0490874 0 0
0.0981748 0 0
0.0981748 0 0
0.147262 0 0
0.147262 0 0
0.19635 0 0
0.19635 0 0
0.245437 0 0
0.245437 0 0
0.294524 0 0
0.294524 0 0
0.343612 0 0
0.343612 0 0
0.392699 0 0
0.392699 0 0
0.441786 0 0
0.441786 0 0
0.490874 0 0
0.490874 0 0
0.539961 0 0
0.539961 0 0
0.589049 0 0
0.589049 0 0
0.638136 0 0
0.638136 0 0
0.687223 0 0
0.687223 0 0
0.736311 0 0
0.736311 0 0
0.785398 0 0
0.785398 0 0
0.834486 0 0
0.834486 0 0
0.883573 0 0
0.883573 0 0
0.93266 0 0
0.93266 0 0
0.981748 0 0
0.981748 0 0
1.03084 0 0
1.03084 0 0
1.07992 0 0
1.07992 0 0
1.12901 0 0
1.12901 0 0
1.1781 0 0
1.1781 0 0
1.22718 0 0
1.22718 0 0
1.27627 0 0
1.27627 0 0
1.32536 0 0
1.32536 0 0
1.37445 0 0
1.37445 0 0
1.42353 0 0
1.42353 0 0
1.47262 0 0
1.47262 0 0
1.52171 0 0
1.52171 0 0
1.5708 0 0
1.5708 0 0
1.61988 0 0
1.61988 0 0
1.66897 0 0
1.66897 0 0
1.71806 0 0
1.71806 0 0
1.76715 0 0
1.76715 0 0
1.81623 0 0
1.81623 0 0
1.86532 0 0
1.86532 0 0
1.91441 0 0
1.91441 0 0
1.9635 0 0
1.9635 0 0
2.01258 0 0
2.01258 0 0
2.06167 0 0
2.06167 0 0
2.11076 0 0
2.11076 0 0
2.15984 0 0
2.15984 0 0
2.20893 0 0
2.20893 0 0
2.25802 0 0
2.25802 0 0
2.30711 0 0
2.30711 0 0
2.35619 0 0
2.35619 0 0
2.40528 0 0
2.40528 0 0
2.45437 0 0
2.45437 0 0
2.50346 0 0
2.50346 0 0
2.55254 0 0
2.55254 0 0
2.60163 0 0
2.60163 0 0
2.65072 0 0
2.65072 0 0
2.69981 0 0
2.69981 0 0
2.74889 0 0
2.74889 0 0
2.79798 0 0
2.79798 0 0
2.84707 0 0
2.84707 0 0
2.89616 0 0
2.89616 0 0
2.94524 0 0
2.94524 0 0
2.99433 0 0
2.99433 0 0
3.04342 0 0
3.04342 0 0
3.09251 0 0
3.09251 0 0
3.14159 0 0
3.14159 0 0
3.19068 0 0
3.19068 0 0
3.23977 0 0
3.23977 0 0
3.28885 0 0
3.28885 0 0
3.33794 0 0
3.33794 0 0
3.38703 0 0
3.38703 0 0
3.43612 0 0
3.43612 0 0
3.4852 0 0
3.4852 0 0
3.53429 0 0
3.53429 0 0
3.58338 0 0
3.58338 0 0
3.63247 0 0
3.63247 0 0
3.68155 0 0
3.68155 0 0
3.73064 0 0
3.73064 0 0
3.77973 0 0
3.77973 0 0
3.82882 0 0
3.82882 0 0
3.8779 0 0
3.8779 0 0
3.92699 0 0
3.92699 0 0
3.97608 0 0
3.97608 0 0
4.02517 0 0
4.02517 0 0
4.07425 0 0
4.07425 0 0
4.12334 0 0
4.12334 0 0
4.17243 0 0
4.17243 0 0
4.22152 0 0
4.22152 0 0
4.2706 0 0
4.2706 0 0
4.31969 0 0
4.31969 0 0
4.36878 0 0
4.36878 0 0
4.41786 0 0
4.41786 0 0
4.46695 0 0
4.46695 0 0
4.51604 0 0
4.51604 0 0
4.56513 0 0
4.56513 0 0
4.61421 0 0
4.61421 0 0
4.6633 0 0
4.6633 0 0
4.71239 0 0
4.71239 0 0
4.76148 0 0
4.76148 0 0
4.81056 0 0
4.81056 0 0
4.85965 0 0
4.85965 0 0
4.90874 0 0
4.90874 0 0
4.95783 0 0
4.95783 0 0
5.00691 0 0
5.00691 0 0
5.056 0 0
5.056 0 0
5.10509 0 0
5.10509 0 0
5.15418 0 0
5.15418 0 0
5.20326 0 0
5.20326 0 0
5.25235 0 0
5.25235 0 0
5.30144 0 0
5.30144 0 0
5.35052 0 0
5.35052 0 0
5.39961 0 0
5.39961 0 0
5.4487 0 0
5.4487 0 0
5.49779 0 0
5.49779 0 0
5.54687 0 0
5.54687 0 0
5.59596 0 0
5.59596 0 0
5.64505 0 0
5.64505 0 0
5.69414 0 0
5.69414 0 0
5.74322 0 0
5.74322 0 0
5.79231 0 0
5.79231 0 0
5.8414 0 0
5.8414 0 0
5.89049 0 0
5.89049 0 0
5.93957 0 0
5.93957 0 0
5.98866 0 0
5.98866 0 0
6.03775 0 0
6.03775 0 0
6.08684 0 0
6.08684 0 0
6.13592 0 0
6.13592 0 0
6.18501 0 0
6.18501 0 0
6.2341 0 0
6.2341 0 0
6.28319 0 0
6.28319 0 0
6.33227 0 0
6.33227 0 0
6.38136 0 0
6.38136 0 0
6.43045 0 0
6.43045 0 0
6.47953 0 0
6.47953 0 0
6.52862 0 0
6.52862 0 0
6.57771 0 0
6.57771 0 0
6.6268 0 0
6.6268 0 0
6.67588 0 0
6.67588 0 0
6.72497 0 0
6.72497 0 0
6.77406 0 0
6.77406 0 0
6.82315 0 0
6.82315 0 0
6.87223 0 0
6.87223 0 0
6.92132 0 0
6.92132 0 0
6.97041 0 0
6.97041 0 0
7.0195 0 0
7.0195 0 0
7.06858 0 0
7.06858 0 0
7.11767 0 0
7.11767 0 0
7.16676 0 0
7.16676 0 0
7.21585 0 0
7.21585 0 0
7.26493 0 0
7.26493 0 0
7.31402 0 0
7.31402 0 0
7.36311 0 0
7.36311 0 0
7.4122 0 0
7.4122 0 0
7.46128 0 0
7.46128 0 0
7.51037 0 0
7.51037 0 0
7.55946 0 0
7.55946 0 0
7.60854 0 0
7.60854 0 0
7.65763 0 0
7.65763 0 0
7.70672 0 0
7.70672 0 0
7.75581 0 0
7.75581 0 0
7.80489 0 0
7.80489 0 0
7.85398 0 0
7.85398 0 0
7.90307 0 0
7.90307 0 0
7.95216 0 0
7.95216 0 0
8.00124 0 0
8.00124 0 0
8.05033 0 0
8.05033 0 0
8.09942 0 0
8.09942 0 0
8.14851 0 0
8.14851 0 0
8.19759 0 0
8.19759 0 0
8.24668 0 0
8.24668 0 0
8.29577 0 0
8.29577 0 0
8.34486 0 0
8.34486 0 0
8.39394 0 0
8.39394 0 0
8.44303 0 0
8.44303 0 0
8.49212 0 0
8.49212 0 0
8.54121 0 0
8.54121 0 0
8.59029 0 0
8.59029 0 0
8.63938 0 0
8.63938 0 0
8.68847 0 0
8.68847 0 0
8.73755 0 0
8.73755 0 0
8.78664 0 0
8.78664 0 0
8.83573 0 0
8.83573 0 0
8.88482 0 0
8.88482 0 0
8.9339 0 0
8.9339 0 0
8.98299 0 0
8.98299 0 0
9.03208 0 0
9.03208 0 0
9.08117 0 0
9.08117 0 0
9.13025 0 0
9.13025 0 0
9.17934 0 0
9.17934 0 0
9.22843 0 0
9.22843 0 0
9.27752 0 0
9.27752 0 0
9.3266 0 0
9.3266 0 0
9.37569 0 0
9.37569 0 0
9.42478 0 0
9.42478 0 0
9.47387 0 0
9.47387 0 0
9.52295 0 0
9.52295 0 0
9.57204 0 0
9.57204 0 0
9.62113 0 0
9.62113 0 0
9.67021 0 0
9.67021 0 0
9.7193 0 0
9.7193 0 0
9.76839 0 0
9.76839 0 0
9.81748 0 0
9.81748 0 0
9.86656 0 0
9.86656 0 0
9.91565 0 0
9.91565 0 0
9.96474 0 0
9.96474 0 0
10.0138 0 0
10.0138 0 0
10.0629 0 0
10.0629 0 0
10.112 0 0
10.112 0 0
10.1611 0 0
10.1611 0 0
10.2102 0 0
10.2102 0 0
10.2593 0 0
10.2593 0 0
10.3084 0 0
10.3084 0 0
10.3574 0 0
10.3574 0 0
10.4065 0 0
10.4065 0 0
10.4556 0 0
10.4556 0 0
10.5047 0 0
10.5047 0 0
10.5538 0 0
10.5538 0 0
10.6029 0 0
10.6029 0 0
10.652 0 0
10.652 0 0
10.701 0 0
10.701 0 0
10.7501 0 0
10.7501 0 0
10.7992 0 0
10.7992 0 0
10.8483 0 0
10.8483 0 0
10.8974 0 0
10.8974 0 0
10.9465 0 0
10.9465 0 0
10.9956 0 0
10.9956 0 0
11.0447 0 0
11.0447 0 0
11.0937 0 0
11.0937 0 0
11.1428 0 0
11.1428 0 0
11.1919 0 0
11.1919 0 0
11.241 0 0
11.241 0 0
11.2901 0 0
11.2901 0 0
11.3392 0 0
11.3392 0 0
11.3883 0 0
11.3883 0 0
11.4374 0 0
11.4374 0 0
11.4864 0 0
11.4864 0 0
11.5355 0 0
11.5355 0 0
11.5846 0 0
11.5846 0 0
11.6337 0 0
11.6337 0 0
11.6828 0 0
11.6828 0 0
11.7319 0 0
11.7319 0 0
11.781 0 0
11.781 0 0
11.8301 0 0
11.8301 0 0
11.8791 0 0
11.8791 0 0
11.9282 0 0
11.9282 0 0
11.9773 0 0
11.9773 0 0
12.0264 0 0
12.0264 0 0
12.0755 0 0
12.0755 0 0
12.1246 0 0
12.1246 0 0
12.1737 0 0
12.1737 0 0
12.2228 0 0
12.2228 0 0
12.2718 0 0
12.2718 0 0
12.3209 0 0
12.3209 0 0
12.37 0 0
12.37 0 0
12.4191 0 0
12.4191 0 0
12.4682 0 0
12.4682 0 0
12.5173 0 0
12.5173 0 0
12.5664 0 0

CELLS 256 768
2	0	1
2	2	3
2	4	5
2	6	7
2	8	9
2	10	11
2	12	13
2	14	15
2	16	17
2	18	19
2	20	21
2	22	23
2	24	25
2	26	27
2	28	29
2	30	31
2	32	33
2	34	35
2	36	37
2	38	39
2	40	41
2	42	43
2	44	45
2	46	47
2	48	49
2	50	51
2	52	53
2	54	55
2	56	57
2	58	59
2	60	61
2	62	63
2	64	65
2	66	67
2	68	69
2	70	71
2	72	73
2	74	75
2	76	77
2	78	79
2	80	81
2	82	83
2	84	85
2	86	87
2	88	89
2	90	91
2	92	93
2	94	95
2	96	97
2	98	99
2	100	101
2	102	103
2	104	105
2	106	107
2	108	109
2	110	111
2	112	113
2	114	115
2	116	117
2	118	119
2	120	121
2	122	123
2	124	125
2	126	127
2	128	129
2	130	131
2	132	133
2	134	135
2	136	137
2	138	139
2	140	141
2	142	143
2	144	145
2	146	147
2	148	149
2	150	151
2	152	153
2	154	155
2	156	157
2	158	159
2	160	161
2	162	163
2	164	165
2	166	167
2	168	169
2	170	171
2	172	173
2	174	175
2	176	177
2	178	179
2	180	181
2	182	183
2	184	185
2	186	187
2	188	189
2	190	191
2	192	193
2	194	195
2	196	197
2	198	199
2	200	201
2	202	203
2	204	205
2	206	207
2	208	209
2	210	211
2	212	213
2	214	215
2	216	217
2	218	219
2	220	221
2	222	223
2	224	225
2	226	227
2	228	229
2	230	231
2	232	233
2	234	235
2	236	237
2	238	239
2	240	241
2	242	243
2	244	245
2	246	247
2	248	249
2	250	251
2	252	253
2	254	255
2	256	257
2	258	259
2	260	261
2	262	263
2	264	265
2	266	267
2	268	269
2	270	271
2	272	273
2	274	275
2	276	277
2	278	279
2	280	281
2	282	283
2	284	285
2	286	287
2	288	289
2	290	291
2	292	293
2	294	295
2	296	297
2	298	299
2	300	301
2	302	303
2	304	305
2	306	307
2	308	309
2	310	311
2	312	313
2	314	315
2	316	317
2	318	319
2	320	321
2	322	323
2	324	325
2	326	327
2	328	329
2	330	331
2	332	333
2	334	335
2	336	337
2	338	339
2	340	341
2	342	343
2	344	345
2	346	347
2	348	349
2	350	351
2	352	353
2	354	355
2	356	357
2	358	359
2	360	361
2	362	363
2	364	365
2	366	367
2	368	369
2	370	371
2	372	373
2	374	375
2	376	377
2	378	379
2	380	381
2	382	383
2	384	385
2	386	387
2	388	389
2	390	391
2	392	393
2	394	395
2	396	397
2	398	399
2	400	401
2	402	403
2	404	405
2	406	407
2	408	409
2	410	411
2	412	413
2	414	415
2	416	417
2	418	419
2	420	421
2	422	423
2	424	425
2	426	427
2	428	429
2	430	431
2	432	433
2	434	435
2	436	437
2	438	439
2	440	441
2	442	443
2	444	445
2	446	447
2	448	449
2	450	451
2	452	453
2	454	455
2	456	457
2	458	459
2	460	461
2	462	463
2	464	465
2	466	467
2	468	469
2	470	471
2	472	473
2	474	475
2	476	477
2	478	479
2	480	481
2	482	483
2	484	485
2	486	487
2	488	489
2	490	491
2	492	493
2	494	495
2	496	497
2	498	499
2	500	501
2	502	503
2	504	505
2	506	507
2	508	509
2	510	511

CELL_TYPES 256
 3 3 3 3 3 3 3 3 3 3 3 3 3 3 3 3 3 3 3 3 3 3 3 3 3 3 3 3 3 3 3 3 3 3 3 3 3 3 3 3 3 3 3 3 3 3 3 3 3 3 3 3 3 3 3 3 3 3 3 3 3 3 3 3 3 3 3 3 3 3 3 3 3 3 3 3 3 3 3 3 3 3 3 3 3 3 3 3 3 3 3 3 3 3 3 3 3 3 3 3 3 3 3 3 3 3 3 3 3 3 3 3 3 3 3 3 3 3 3 3 3 3 3 3 3 3 3 3 3 3 3 3 3 3 3 3 3 3 3 3 3 3 3 3 3 3 3 3 3 3 3 3 3 3 3 3 3 3 3 3 3 3 3 3 3 3 3 3 3 3 3 3 3 3 3 3 3 3 3 3 3 3 3 3 3 3 3 3 3 3 3 3 3 3 3 3 3 3 3 3 3 3 3 3 3 3 3 3 3 3 3 3 3 3 3 3 3 3 3 3 3 3 3 3 3 3 3 3 3 3 3 3 3 3 3 3 3 3 3 3 3 3 3 3 3 3 3 3 3 3 3 3 3 3 3 3
POINT_DATA 512
VECTORS electric_field double
-12.5076 0 0
-12.4585 0 0
-12.4585 0 0
-12.4094 0 0
-12.4094 0 0
-12.3603 0 0
-12.3603 0 0
-12.3112 0 0
-12.3112 0 0
-12.2622 0 0
-12.2622 0 0
-12.2131 0 0
-12.2131 0 0
-12.164 0 0
-12.164 0 0
-12.1149 0 0
-12.1149 0 0
-12.0658 0 0
-12.0658 0 0
-12.0167 0 0
-12.0167 0 0
-11.9676 0 0
-11.9676 0 0
-11.9185 0 0
-11.9185 0 0
-11.8695 0 0
-11.8695 0 0
-11.8204 0 0
-11.8204 0 0
-11.7713 0 0
-11.7713 0 0
-11.7222 0 0
-11.7222 0 0
-11.6731 0 0
-11.6731 0 0
-11.624 0 0
-11.624 0 0
-11.5749 0 0
-11.5749 0 0
-11.5258 0 0
-11.5258 0 0
-11.4768 0 0
-11.4768 0 0
-11.4277 0 0
-11.4277 0 0
-11.3786 0 0
-11.3786 0 0
-11.3295 0 0
-11.3295 0 0
-11.2804 0 0
-11.2804 0 0
-11.2313 0 0
-11.2313 0 0
-11.1822 0 0
-11.1822 0 0
-11.1331 0 0
-11.1331 0 0
-11.0841 0 0
-11.0841 0 0
-11.035 0 0
-11.035 0 0
-10.9859 0 0
-10.9859 0 0
-10.9368 0 0
-10.9368 0 0
-10.8877 0 0
-10.8877 0 0
-10.8386 0 0
-10.8386 0 0
-10.7895 0 0
-10.7895 0 0
-10.7404 0 0
-10.7404 0 0
-10.6914 0 0
-10.6914 0 0
-10.6423 0 0
-10.6423 0 0
-10.5932 0 0
-10.5932 0 0
-10.5441 0 0
-10.5441 0 0
-10.495 0 0
-10.495 0 0
-10.4459 0 0
-10.4459 0 0
-10.3968 0 0
-10.3968 0 0
-10.3477 0 0
-10.3477 0 0
-10.2987 0 0
-10.2987 0 0
-10.2496 0 0
-10.2496 0 0
-10.2005 0 0
-10.2005 0 0
-10.1514 0 0
-10.1514 0 0
-10.1023 0 0
-10.1023 0 0
-10.0532 0 0
-10.0532 0 0
-10.0041 0 0
-10.0041 0 0
-9.95505 0 0
-9.95505 0 0
-9.90596 0 0
-9.90596 0 0
-9.85688 0 0
-9.85688 0 0
-9.80779 0 0
-9.80779 0 0
-9.7587 0 0
-9.7587 0 0
-9.70961 0 0
-9.70961 0 0
-9.66053 0 0
-9.66053 0 0
-9.61144 0 0
-9.61144 0 0
-9.56235 0 0
-9.56235 0 0
-9.51326 0 0
-9.51326 0 0
-9.46418 0 0
-9.46418 0 0
-9.41509 0 0
-9.41509 0 0
-9.366 0 0
-9.366 0 0
-9.31691 0 0
-9.31691 0 0
-9.26783 0 0
-9.26783 0 0
-9.21874 0 0
-9.21874 0 0
-9.16965 0 0
-9.16965 0 0
-9.12057 0 0
-9.12057 0 0
-9.07148 0 0
-9.07148 0 0
-9.02239 0 0
-9.02239 0 0
-8.9733 0 0
-8.9733 0 0
-8.92422 0 0
-8.92422 0 0
-8.87513 0 0
-8.87513 0 0
-8.82604 0 0
-8.82604 0 0
-8.77695 0 0
-8.77695 0 0
-8.72787 0 0
-8.72787 0 0
-8.67878 0 0
-8.67878 0 0
-8.62969 0 0
-8.62969 0 0
-8.5806 0 0
-8.5806 0 0
-8.53152 0 0
-8.53152 0 0
-8.48243 0 0
-8.48243 0 0
-8.43334 0 0
-8.43334 0 0
-8.38425 0 0
-8.38425 0 0
-8.33517 0 0
-8.33517 0 0
-8.28608 0 0
-8.28608 0 0
-8.23699 0 0
-8.23699 0 0
-8.1879 0 0
-8.1879 0 0
-8.13882 0 0
-8.13882 0 0
-8.08973 0 0
-8.08973 0 0
-8.04064 0 0
-8.04064 0 0
-7.99156 0 0
-7.99156 0 0
-7.94247 0 0
-7.94247 0 0
-7.89338 0 0
-7.89338 0 0
-7.84429 0 0
-7.84429 0 0
-7.79521 0 0
-7.79521 0 0
-7.74612 0 0
-7.74612 0 0
-7.69703 0 0
-7.69703 0 0
-7.64794 0 0
-7.64794 0 0
-7.59886 0 0
-7.59886 0 0
-7.54977 0 0
-7.54977 0 0
-7.50068 0 0
-7.50068 0 0
-7.45159 0 0
-7.45159 0 0
-7.40251 0 0
-7.40251 0 0
-7.35342 0 0
-7.35342 0 0
-7.30433 0 0
-7.30433 0 0
-7.25524 0 0
-7.25524 0 0
-7.20616 0 0
-7.20616 0 0
-7.15707 0 0
-7.15707 0 0
-7.10798 0 0
-7.10798 0 0
-7.0589 0 0
-7.0589 0 0
-7.00981 0 0
-7.00981 0 0
-6.96072 0 0
-6.96072 0 0
-6.91163 0 0
-6.91163 0 0
-6.86255 0 0
-6.86255 0 0
-6.81346 0 0
-6.81346 0 0
-6.76437 0 0
-6.76437 0 0
-6.71528 0 0
-6.71528 0 0
-6.6662 0 0
-6.6662 0 0
-6.61711 0 0
-6.61711 0 0
-6.56802 0 0
-6.56802 0 0
-6.51893 0 0
-6.51893 0 0
-6.46985 0 0
-6.46985 0 0
-6.42076 0 0
-6.42076 0 0
-6.37167 0 0
-6.37167 0 0
-6.32258 0 0
-6.32258 0 0
-6.2735 0 0
-6.2735 0 0
-6.22441 0 0
-6.22441 0 0
-6.17532 0 0
-6.17532 0 0
-6.12623 0 0
-6.12623 0 0
-6.07715 0 0
-6.07715 0 0
-6.02806 0 0
-6.02806 0 0
-5.97897 0 0
-5.97897 0 0
-5.92988 0 0
-5.92988 0 0
-5.8808 0 0
-5.8808 0 0
-5.83171 0 0
-5.83171 0 0
-5.78262 0 0
-5.78262 0 0
-5.73354 0 0
-5.73354 0 0
-5.68445 0 0
-5.68445 0 0
-5.63536 0 0
-5.63536 0 0
-5.58627 0 0
-5.58627 0 0
-5.53719 0 0
-5.53719 0 0
-5.4881 0 0
-5.4881 0 0
-5.43901 0 0
-5.43901 0 0
-5.38992 0 0
-5.38992 0 0
-5.34084 0 0
-5.34084 0 0
-5.29175 0 0
-5.29175 0 0
-5.24266 0 0
-5.24266 0 0
-5.19357 0 0
-5.19357 0 0
-5.14449 0 0
-5.14449 0 0
-5.0954 0 0
-5.0954 0 0
-5.04631 0 0
-5.04631 0 0
-4.99722 0 0
-4.99722 0 0
-4.94814 0 0
-4.94814 0 0
-4.89905 0 0
-4.89905 0 0
-4.84996 0 0
-4.84996 0 0
-4.80088 0 0
-4.80088 0 0
-4.75179 0 0
-4.75179 0 0
-4.7027 0 0
-4.7027 0 0
-4.65361 0 0
-4.65361 0 0
-4.60453 0 0
-4.60453 0 0
-4.55544 0 0
-4.55544 0 0
-4.50635 0 0
-4.50635 0 0
-4.45726 0 0
-4.45726 0 0
-4.40818 0 0
-4.40818 0 0
-4.35909 0 0
-4.35909 0 0
-4.31 0 0
-4.31 0 0
-4.26091 0 0
-4.26091 0 0
-4.21183 0 0
-4.21183 0 0
-4.16274 0 0
-4.16274 0 0
-4.11365 0 0
-4.11365 0 0
-4.06456 0 0
-4.06456 0 0
-4.01548 0 0
-4.01548 0 0
-3.96639 0 0
-3.96639 0 0
-3.9173 0 0
-3.9173 0 0
-3.86821 0 0
-3.86821 0 0
-3.81913 0 0
-3.81913 0 0
-3.77004 0 0
-3.77004 0 0
-3.72095 0 0
-3.72095 0 0
-3.67187 0 0
-3.67187 0 0
-3.62278 0 0
-3.62278 0 0
-3.57369 0 0
-3.57369 0 0
-3.5246 0 0
-3.5246 0 0
-3.47552 0 0
-3.47552 0 0
-3.42643 0 0
-3.42643 0 0
-3.37734 0 0
-3.37734 0 0
-3.32825 0 0
-3.32825 0 0
-3.27917 0 0
-3.27917 0 0
-3.23008 0 0
-3.23008 0 0
-3.18099 0 0
-3.18099 0 0
-3.1319 0 0
-3.1319 0 0
-3.08282 0 0
-3.08282 0 0
-3.03373 0 0
-3.03373 0 0
-2.98464 0 0
-2.98464 0 0
-2.93555 0 0
-2.93555 0 0
-2.88647 0 0
-2.88647 0 0
-2.83738 0 0
-2.83738 0 0
-2.78829 0 0
-2.78829 0 0
-2.7392 0 0
-2.7392 0 0
-2.69012 0 0
-2.69012 0 0
-2.64103 0 0
-2.64103 0 0
-2.59194 0 0
-2.59194 0 0
-2.54286 0 0
-2.54286 0 0
-2.49377 0 0
-2.49377 0 0
-2.44468 0 0
-2.44469 0 0
-2.39578 0 0
-2.39573 0 0
-2.34664 0 0
-2.34664 0 0
-2.29755 0 0
-2.29755 0 0
-2.24847 0 0
-2.24847 0 0
-2.19938 0 0
-2.19938 0 0
-2.15029 0 0
-2.15029 0 0
-2.1012 0 0
-2.1012 0 0
-2.05212 0 0
-2.05212 0 0
-2.00303 0 0
-2.00303 0 0
-1.95394 0 0
-1.95394 0 0
-1.90486 0 0
-1.90486 0 0
-1.85577 0 0
-1.85577 0 0
-1.80668 0 0
-1.80668 0 0
-1.75759 0 0
-1.75759 0 0
-1.70851 0 0
-1.70851 0 0
-1.65942 0 0
-1.65942 0 0
-1.61033 0 0
-1.61033 0 0
-1.56124 0 0
-1.56124 0 0
-1.51216 0 0
-1.51216 0 0
-1.46308 0 0
-1.46308 0 0
-1.41399 0 0
-1.41399 0 0
-1.36491 0 0
-1.36491 0 0
-1.31582 0 0
-1.31582 0 0
-1.26673 0 0
-1.26673 0 0
-1.21765 0 0
-1.21765 0 0
-1.16856 0 0
-1.16856 0 0
-1.11948 0 0
-1.11948 0 0
-1.07039 0 0
-1.07039 0 0
-1.02131 0 0
-1.02131 0 0
-0.972226 0 0
-0.972224 0 0
-0.923147 0 0
-0.923145 0 0
-0.874077 0 0
-0.874076 0 0
-0.825016 0 0
-0.825015 0 0
-0.775975 0 0
-0.775975 0 0
-0.72703 0 0
-0.727043 0 0
-0.678204 0 0
-0.678197 0 0
-0.629463 0 0
-0.629474 0 0
-0.581194 0 0
-0.581162 0 0
-0.53296 0 0
-0.532969 0 0
-0.485306 0 0
-0.485313 0 0
-0.438544 0 0
-0.438623 0 0
-0.392742 0 0
-0.392714 0 0
-0.347435 0 0
-0.347504 0 0
-0.302924 0 0
-0.302989 0 0
-0.259649 0 0
-0.259696 0 0
-0.217397 0 0
-0.217343 0 0
-0.176198 0 0
-0.176218 0 0
-0.136392 0 0
-0.13645 0 0
-0.0981234 0 0
-0.0981748 0 0
-0.0490874 0 0
-0.0490874 0 0
-2.54659e-11 0 0
SCALARS potential double 1
LOOKUP_TABLE default
0 0.61276 0.61276 1.22311 1.22311 1.83105 1.83105 2.43658 2.43658 3.03971 3.03971 3.64042 3.64042 4.23872 4.23872 4.83461 4.83461 5.4281 5.4281 6.01917 6.01917 6.60784 6.60784 7.19409 7.19409 7.77794 7.77794 8.35937 8.35937 8.9384 8.9384 9.51502 9.51502 10.0892 10.0892 10.661 10.661 11.2304 11.2304 11.7974 11.7974 12.362 12.362 12.9241 12.9241 13.4839 13.4839 14.0412 14.0412 14.5961 14.5961 15.1487 15.1487 15.6988 15.6988 16.2465 16.2465 16.7918 16.7918 17.3346 17.3346 17.8751 17.8751 18.4132 18.4132 18.9488 18.9488 19.4821 19.4821 20.0129 20.0129 20.5413 20.5413 21.0674 21.0674 21.591 21.591 22.1122 22.1122 22.6309 22.6309 23.1473 23.1473 23.6613 23.6613 24.1729 24.1729 24.682 24.682 25.1887 25.1887 25.6931 25.6931 26.195 26.195 26.6945 26.6945 27.1916 27.1916 27.6863 27.6863 28.1786 28.1786 28.6684 28.6684 29.1559 29.1559 29.641 29.641 30.1236 30.1236 30.6038 30.6038 31.0817 31.0817 31.5571 31.5571 32.0301 32.0301 32.5007 32.5007 32.9689 32.9689 33.4346 33.4346 33.898 33.898 34.359 34.359 34.8175 34.8175 35.2737 35.2737 35.7274 35.7274 36.1787 36.1787 36.6276 36.6276 37.0741 37.0741 37.5182 37.5182 37.9599 37.9599 38.3992 38.3992 38.836 38.836 39.2705 39.2705 39.7025 39.7025 40.1321 40.1321 40.5594 40.5594 40.9842 40.9842 41.4066 41.4066 41.8266 41.8266 42.2442 42.2442 42.6593 42.6593 43.0721 43.0721 43.4825 43.4825 43.8904 43.8904 44.2959 44.2959 44.6991 44.6991 45.0998 45.0998 45.4981 45.4981 45.894 45.894 46.2875 46.2875 46.6786 46.6786 47.0672 47.0672 47.4535 47.4535 47.8373 47.8373 48.2188 48.2188 48.5978 48.5978 48.9744 48.9744 49.3487 49.3487 49.7205 49.7205 50.0899 50.0899 50.4568 50.4568 50.8214 50.8214 51.1836 51.1836 51.5433 51.5433 51.9007 51.9007 52.2556 52.2556 52.6081 52.6081 52.9583 52.9583 53.306 53.306 53.6513 53.6513 53.9941 53.9941 54.3346 54.3346 54.6727 54.6727 55.0084 55.0084 55.3416 55.3416 55.6724 55.6724 56.0009 56.0009 56.3269 56.3269 56.6505 56.6505 56.9717 56.9717 57.2905 57.2905 57.6069 57.6069 57.9209 57.9209 58.2324 58.2324 58.5416 58.5416 58.8483 58.8483 59.1527 59.1527 59.4546 59.4546 59.7541 59.7541 60.0512 60.0512 60.3459 60.3459 60.6382 60.6382 60.9281 60.9281 61.2155 61.2155 61.5006 61.5006 61.7832 61.7832 62.0635 62.0635 62.3413 62.3413 62.6167 62.6167 62.8897 62.8897 63.1604 63.1604 63.4285 63.4285 63.6943 63.6943 63.9577 63.9577 64.2187 64.2187 64.4772 64.4772 64.7334 64.7334 64.9871 64.9871 65.2384 65.2384 65.4873 65.4873 65.7338 65.7338 65.9779 65.9779 66.2196 66.2196 66.4589 66.4589 66.6958 66.6958 66.9302 66.9302 67.1623 67.1623 67.3919 67.3919 67.6191 67.6191 67.844 67.844 68.0664 68.0664 68.2864 68.2864 68.504 68.504 68.7191 68.7191 68.9319 68.9319 69.1423 69.1423 69.3502 69.3502 69.5558 69.5558 69.7589 69.7589 69.9596 69.9596 70.1579 70.1579 70.3538 70.3538 70.5473 70.5473 70.7384 70.7384 70.9271 70.9271 71.1134 71.1134 71.2972 71.2972 71.4787 71.4787 71.6577 71.6577 71.8343 71.8343 72.0085 72.0085 72.1804 72.1804 72.3498 72.3498 72.5167 72.5167 72.6813 72.6813 72.8435 72.8435 73.0033 73.0033 73.1606 73.1606 73.3156 73.3156 73.4681 73.4681 73.6182 73.6182 73.7659 73.7659 73.9112 73.9112 74.0541 74.0541 74.1946 74.1946 74.3327 74.3327 74.4683 74.4683 74.6016 74.6016 74.7324 74.7324 74.8609 74.8609 74.9869 74.9869 75.1105 75.1105 75.2317 75.2317 75.3505 75.3505 75.4669 75.4669 75.5809 75.5809 75.6925 75.6925 75.8017 75.8017 75.9084 75.9084 76.0128 76.0128 76.1147 76.1147 76.2142 76.2142 76.3113 76.3113 76.4061 76.4061 76.4984 76.4984 76.5882 76.5882 76.6757 76.6757 76.7608 76.7608 76.8435 76.8435 76.9237 76.9237 77.0015 77.0015 77.077 77.077 77.15 77.15 77.2206 77.2206 77.2888 77.2888 77.3546 77.3546 77.418 77.418 77.479 77.479 77.5375 77.5375 77.5937 77.5937 77.6475 77.6475 77.6988 77.6988 77.7477 77.7477 77.7942 77.7942 77.8383 77.8383 77.8801 77.8801 77.9193 77.9193 77.9562 77.9562 77.9907 77.9907 78.0228 78.0228 78.0525 78.0525 78.0799 78.0799 78.1049 78.1049 78.1275 78.1275 78.1479 78.1479 78.1661 78.1661 78.182 78.182 78.1959 78.1959 78.2076 78.2076 78.2172 78.2172 78.2249 78.2249 78.2306 78.2306 78.2342 78.2342 78.2355 
SCALARS x_coordinate double 1
LOOKUP_TABLE default
0 0.0490874 0.0490874 0.0981748 0.0981748 0.147262 0.147262 0.19635 0.19635 0.245437 0.245437 0.294524 0.294524 0.343612 0.343612 0.392699 0.392699 0.441786 0.441786 0.490874 0.490874 0.539961 0.539961 0.589049 0.589049 0.638136 0.638136 0.687223 0.687223 0.736311 0.736311 0.785398 0.785398 0.834486 0.834486 0.883573 0.883573 0.93266 0.93266 0.981748 0.981748 1.03084 1.03084 1.07992 1.07992 1.12901 1.12901 1.1781 1.1781 1.22718 1.22718 1.27627 1.27627 1.32536 1.32536 1.37445 1.37445 1.42353 1.42353 1.47262 1.47262 1.52171 1.52171 1.5708 1.5708 1.61988 1.61988 1.66897 1.66897 1.71806 1.71806 1.76715 1.76715 1.81623 1.81623 1.86532 1.86532 1.91441 1.91441 1.9635 1.9635 2.01258 2.01258 2.06167 2.06167 2.11076 2.11076 2.15984 2.15984 2.20893 2.20893 2.25802 2.25802 2.30711 2.30711 2.35619 2.35619 2.40528 2.40528 2.45437 2.45437 2.50346 2.50346 2.55254 2.55254 2.60163 2.60163 2.65072 2.65072 2.69981 2.69981 2.74889 2.74889 2.79798 2.79798 2.84707 2.84707 2.89616 2.89616 2.94524 2.94524 2.99433 2.99433 3.04342 3.04342 3.09251 3.09251 3.14159 3.14159 3.19068 3.19068 3.23977 3.23977 3.28885 3.28885 3.33794 3.33794 3.38703 3.38703 3.43612 3.43612 3.4852 3.4852 3.53429 3.53429 3.58338 3.58338 3.63247 3.63247 3.68155 3.68155 3.73064 3.73064 3.77973 3.77973 3.82882 3.82882 3.8779 3.8779 3.92699 3.92699 3.97608 3.97608 4.02517 4.02517 4.07425 4.07425 4.12334 4.12334 4.17243 4.17243 4.22152 4.22152 4.2706 4.2706 4.31969 4.31969 4.36878 4.36878 4.41786 4.41786 4.46695 4.46695 4.51604 4.51604 4.56513 4.56513 4.61421 4.61421 4.6633 4.6633 4.71239 4.71239 4.76148 4.76148 4.81056 4.81056 4.85965 4.85965 4.90874 4.90874 4.95783 4.95783 5.00691 5.00691 5.056 5.056 5.10509 5.10509 5.15418 5.15418 5.20326 5.20326 5.25235 5.25235 5.30144 5.30144 5.35052 5.35052 5.39961 5.39961 5.4487 5.4487 5.49779 5.49779 5.54687 5.54687 5.59596 5.59596 5.64505 5.64505 5.69414 5.69414 5.74322 5.74322 5.79231 5.79231 5.8414 5.8414 5.89049 5.89049 5.93957 5.93957 5.98866 5.98866 6.03775 6.03775 6.08684 6.08684 6.13592 6.13592 6.18501 6.18501 6.2341 6.2341 6.28319 6.28319 6.33227 6.33227 6.38136 6.38136 6.43045 6.43045 6.47953 6.47953 6.52862 6.52862 6.57771 6.57771 6.6268 6.6268 6.67588 6.67588 6.72497 6.72497 6.77406 6.77406 6.82315 6.82315 6.87223 6.87223 6.92132 6.92132 6.97041 6.97041 7.0195 7.0195 7.06858 7.06858 7.11767 7.11767 7.16676 7.16676 7.21585 7.21585 7.26493 7.26493 7.31402 7.31402 7.36311 7.36311 7.4122 7.4122 7.46128 7.46128 7.51037 7.51037 7.55946 7.55946 7.60854 7.60854 7.65763 7.65763 7.70672 7.70672 7.75581 7.75581 7.80489 7.80489 7.85398 7.85398 7.90307 7.90307 7.95216 7.95216 8.00124 8.00124 8.05033 8.05033 8.09942 8.09942 8.14851 8.14851 8.19759 8.19759 8.24668 8.24668 8.29577 8.29577 8.34486 8.34486 8.39394 8.39394 8.44303 8.44303 8.49212 8.49212 8.54121 8.54121 8.59029 8.59029 8.63938 8.63938 8.68847 8.68847 8.73755 8.73755 8.78664 8.78664 8.83573 8.83573 8.88482 8.88482 8.9339 8.9339 8.98299 8.98299 9.03208 9.03208 9.08117 9.08117 9.13025 9.13025 9.17934 9.17934 9.22843 9.22843 9.27752 9.27752 9.3266 9.3266 9.37569 9.37569 9.42478 9.42478 9.47387 9.47387 9.52295 9.52295 9.57204 9.57204 9.62113 9.62113 9.67021 9.67021 9.7193 9.7193 9.76839 9.76839 9.81748 9.81748 9.86656 9.86656 9.91565 9.91565 9.96474 9.96474 10.0138 10.0138 10.0629 10.0629 10.112 10.112 10.1611 10.1611 10.2102 10.2102 10.2593 10.2593 10.3084 10.3084 10.3574 10.3574 10.4065 10.4065 10.4556 10.4556 10.5047 10.5047 10.5538 10.5538 10.6029 10.6029 10.652 10.652 10.701 10.701 10.7501 10.7501 10.7992 10.7992 10.8483 10.8483 10.8974 10.8974 10.9465 10.9465 10.9956 10.9956 11.0447 11.0447 11.0937 11.0937 11.1428 11.1428 11.1919 11.1919 11.241 11.241 11.2901 11.2901 11.3392 11.3392 11.3883 11.3883 11.4374 11.4374 11.4864 11.4864 11.5355 11.5355 11.5846 11.5846 11.6337 11.6337 11.6828 11.6828 11.7319 11.7319 11.781 11.781 11.8301 11.8301 11.8791 11.8791 11.9282 11.9282 11.9773 11.9773 12.0264 12.0264 12.0755 12.0755 12.1246 12.1246 12.1737 12.1737 12.2228 12.2228 12.2718 12.2718 12.3209 12.3209 12.37 12.37 12.4191 12.4191 12.4682 12.4682 12.5173 12.5173 12.5664 
