# vtk DataFile Version 3.0
#This file was generated by the deal.II library on 2026/3/10 at 19:11:38
ASCII
DATASET UNSTRUCTURED_GRID

POINTS 512 double
0 0 0
0.0490874 0 0
0.0490874 0 0
0.0981748 0 0
0.0981748 0 0
0.147262 0 0
0.147262 0 0
0.19635 0 0
0.19635 0 0
0.245437 0 0
0.245437 0 0
0.294524 0 0
0.294524 0 0
0.343612 0 0
0.343612 0 0
0.392699 0 0
0.392699 0 0
0.441786 0 0
0.441786 0 0
0.490874 0 0
0.490874 0 0
0.539961 0 0
0.539961 0 0
0.589049 0 0
0.589049 0 0
0.638136 0 0
0.638136 0 0
0.687223 0 0
0.687223 0 0
0.736311 0 0
0.736311 0 0
0.785398 0 0
0.785398 0 0
0.834486 0 0
0.834486 0 0
0.883573 0 0
0.883573 0 0
0.93266 0 0
0.93266 0 0
0.981748 0 0
0.981748 0 0
1.03084 0 0
1.03084 0 0
1.07992 0 0
1.07992 0 0
1.12901 0 0
1.12901 0 0
1.1781 0 0
1.1781 0 0
1.22718 0 0
1.22718 0 0
1.27627 0 0
1.27627 0 0
1.32536 0 0
1.32536 0 0
1.37445 0 0
1.37445 0 0
1.42353 0 0
1.42353 0 0
1.47262 0 0
1.47262 0 0
1.52171 0 0
1.52171 0 0
1.5708 0 0
1.5708 0 0
1.61988 0 0
1.61988 0 0
1.66897 0 0
1.66897 0 0
1.71806 0 0
1.71806 0 0
1.76715 0 0
1.76715 0 0
1.81623 0 0
1.81623 0 0
1.86532 0 0
1.86532 0 0
1.91441 0 0
1.91441 0 0
1.9635 0 0
1.9635 0 0
2.01258 0 0
2.01258 0 0
2.06167 0 0
2.06167 0 0
2.11076 0 0
2.11076 0 0
2.15984 0 0
2.15984 0 0
2.20893 0 0
2.20893 0 0
2.25802 0 0
2.25802 0 0
2.30711 0 0
2.30711 0 0
2.35619 0 0
2.35619 0 0
2.40528 0 0
2.40528 0 0
2.45437 0 0
2.45437 0 0
2.50346 0 0
2.50346 0 0
2.55254 0 0
2.55254 0 0
2.60163 0 0
2.60163 0 0
2.65072 0 0
2.65072 0 0
2.69981 0 0
2.69981 0 0
2.74889 0 0
2.74889 0 0
2.79798 0 0
2.79798 0 0
2.84707 0 0
2.84707 0 0
2.89616 0 0
2.89616 0 0
2.94524 0 0
2.94524 0 0
2.99433 0 0
2.99433 0 0
3.04342 0 0
3.04342 0 0
3.09251 0 0
3.09251 0 0
3.14159 0 0
3.14159 0 0
3.19068 0 0
3.19068 0 0
3.23977 0 0
3.23977 0 0
3.28885 0 0
3.28885 0 0
3.33794 0 0
3.33794 0 0
3.38703 0 0
3.38703 0 0
3.43612 0 0
3.43612 0 0
3.4852 0 0
3.4852 0 0
3.53429 0 0
3.53429 0 0
3.58338 0 0
3.58338 0 0
3.63247 0 0
3.63247 0 0
3.68155 0 0
3.68155 0 0
3.73064 0 0
3.73064 0 0
3.77973 0 0
3.77973 0 0
3.82882 0 0
3.82882 0 0
3.8779 0 0
3.8779 0 0
3.92699 0 0
3.92699 0 0
3.97608 0 0
3.97608 0 0
4.02517 0 0
4.02517 0 0
4.07425 0 0
4.07425 0 0
4.12334 0 0
4.12334 0 0
4.17243 0 0
4.17243 0 0
4.22152 0 0
4.22152 0 0
4.2706 0 0
4.2706 0 0
4.31969 0 0
4.31969 0 0
4.36878 0 0
4.36878 0 0
4.41786 0 0
4.41786 0 0
4.46695 0 0
4.46695 0 0
4.51604 0 0
4.51604 0 0
4.56513 0 0
4.56513 0 0
4.61421 0 0
4.61421 0 0
4.6633 0 0
4.6633 0 0
4.71239 0 0
4.71239 0 0
4.76148 0 0
4.76148 0 0
4.81056 0 0
4.81056 0 0
4.85965 0 0
4.85965 0 0
4.90874 0 0
4.90874 0 0
4.95783 0 0
4.95783 0 0
5.00691 0 0
5.00691 0 0
5.056 0 0
5.056 0 0
5.10509 0 0
5.10509 0 0
5.15418 0 0
5.15418 0 0
5.20326 0 0
5.20326 0 0
5.25235 0 0
5.25235 0 0
5.30144 0 0
5.30144 0 0
5.35052 0 0
5.35052 0 0
5.39961 0 0
5.39961 0 0
5.4487 0 0
5.4487 0 0
5.49779 0 0
5.49779 0 0
5.54687 0 0
5.54687 0 0
5.59596 0 0
5.59596 0 0
5.64505 0 0
5.64505 0 0
5.69414 0 0
5.69414 0 0
5.74322 0 0
5.74322 0 0
5.79231 0 0
5.79231 0 0
5.8414 0 0
5.8414 0 0
5.89049 0 0
5.89049 0 0
5.93957 0 0
5.93957 0 0
5.98866 0 0
5.98866 0 0
6.03775 0 0
6.03775 0 0
6.08684 0 0
6.08684 0 0
6.13592 0 0
6.13592 0 0
6.18501 0 0
6.18501 0 0
6.2341 0 0
6.2341 0 0
6.28319 0 0
6.28319 0 0
6.33227 0 0
6.33227 0 0
6.38136 0 0
6.38136 0 0
6.43045 0 0
6.43045 0 0
6.47953 0 0
6.47953 0 0
6.52862 0 0
6.52862 0 0
6.57771 0 0
6.57771 0 0
6.6268 0 0
6.6268 0 0
6.67588 0 0
6.67588 0 0
6.72497 0 0
6.72497 0 0
6.77406 0 0
6.77406 0 0
6.82315 0 0
6.82315 0 0
6.87223 0 0
6.87223 0 0
6.92132 0 0
6.92132 0 0
6.97041 0 0
6.97041 0 0
7.0195 0 0
7.0195 0 0
7.06858 0 0
7.06858 0 0
7.11767 0 0
7.11767 0 0
7.16676 0 0
7.16676 0 0
7.21585 0 0
7.21585 0 0
7.26493 0 0
7.26493 0 0
7.31402 0 0
7.31402 0 0
7.36311 0 0
7.36311 0 0
7.4122 0 0
7.4122 0 0
7.46128 0 0
7.46128 0 0
7.51037 0 0
7.51037 0 0
7.55946 0 0
7.55946 0 0
7.60854 0 0
7.60854 0 0
7.65763 0 0
7.65763 0 0
7.70672 0 0
7.70672 0 0
7.75581 0 0
7.75581 0 0
7.80489 0 0
7.80489 0 0
7.85398 0 0
7.85398 0 0
7.90307 0 0
7.90307 0 0
7.95216 0 0
7.95216 0 0
8.00124 0 0
8.00124 0 0
8.05033 0 0
8.05033 0 0
8.09942 0 0
8.09942 0 0
8.14851 0 0
8.14851 0 0
8.19759 0 0
8.19759 0 0
8.24668 0 0
8.24668 0 0
8.29577 0 0
8.29577 0 0
8.34486 0 0
8.34486 0 0
8.39394 0 0
8.39394 0 0
8.44303 0 0
8.44303 0 0
8.49212 0 0
8.49212 0 0
8.54121 0 0
8.54121 0 0
8.59029 0 0
8.59029 0 0
8.63938 0 0
8.63938 0 0
8.68847 0 0
8.68847 0 0
8.73755 0 0
8.73755 0 0
8.78664 0 0
8.78664 0 0
8.83573 0 0
8.83573 0 0
8.88482 0 0
8.88482 0 0
8.9339 0 0
8.9339 0 0
8.98299 0 0
8.98299 0 0
9.03208 0 0
9.03208 0 0
9.08117 0 0
9.08117 0 0
9.13025 0 0
9.13025 0 0
9.17934 0 0
9.17934 0 0
9.22843 0 0
9.22843 0 0
9.27752 0 0
9.27752 0 0
9.3266 0 0
9.3266 0 0
9.37569 0 0
9.37569 0 0
9.42478 0 0
9.42478 0 0
9.47387 0 0
9.47387 0 0
9.52295 0 0
9.52295 0 0
9.57204 0 0
9.57204 0 0
9.62113 0 0
9.62113 0 0
9.67021 0 0
9.67021 0 0
9.7193 0 0
9.7193 0 0
9.76839 0 0
9.76839 0 0
9.81748 0 0
9.81748 0 0
9.86656 0 0
9.86656 0 0
9.91565 0 0
9.91565 0 0
9.96474 0 0
9.96474 0 0
10.0138 0 0
10.0138 0 0
10.0629 0 0
10.0629 0 0
10.112 0 0
10.112 0 0
10.1611 0 0
10.1611 0 0
10.2102 0 0
10.2102 0 0
10.2593 0 0
10.2593 0 0
10.3084 0 0
10.3084 0 0
10.3574 0 0
10.3574 0 0
10.4065 0 0
10.4065 0 0
10.4556 0 0
10.4556 0 0
10.5047 0 0
10.5047 0 0
10.5538 0 0
10.5538 0 0
10.6029 0 0
10.6029 0 0
10.652 0 0
10.652 0 0
10.701 0 0
10.701 0 0
10.7501 0 0
10.7501 0 0
10.7992 0 0
10.7992 0 0
10.8483 0 0
10.8483 0 0
10.8974 0 0
10.8974 0 0
10.9465 0 0
10.9465 0 0
10.9956 0 0
10.9956 0 0
11.0447 0 0
11.0447 0 0
11.0937 0 0
11.0937 0 0
11.1428 0 0
11.1428 0 0
11.1919 0 0
11.1919 0 0
11.241 0 0
11.241 0 0
11.2901 0 0
11.2901 0 0
11.3392 0 0
11.3392 0 0
11.3883 0 0
11.3883 0 0
11.4374 0 0
11.4374 0 0
11.4864 0 0
11.4864 0 0
11.5355 0 0
11.5355 0 0
11.5846 0 0
11.5846 0 0
11.6337 0 0
11.6337 0 0
11.6828 0 0
11.6828 0 0
11.7319 0 0
11.7319 0 0
11.781 0 0
11.781 0 0
11.8301 0 0
11.8301 0 0
11.8791 0 0
11.8791 0 0
11.9282 0 0
11.9282 0 0
11.9773 0 0
11.9773 0 0
12.0264 0 0
12.0264 0 0
12.0755 0 0
12.0755 0 0
12.1246 0 0
12.1246 0 0
12.1737 0 0
12.1737 0 0
12.2228 0 0
12.2228 0 0
12.2718 0 0
12.2718 0 0
12.3209 0 0
12.3209 0 0
12.37 0 0
12.37 0 0
12.4191 0 0
12.4191 0 0
12.4682 0 0
12.4682 0 0
12.5173 0 0
12.5173 0 0
12.5664 0 0

CELLS 256 768
2	0	1
2	2	3
2	4	5
2	6	7
2	8	9
2	10	11
2	12	13
2	14	15
2	16	17
2	18	19
2	20	21
2	22	23
2	24	25
2	26	27
2	28	29
2	30	31
2	32	33
2	34	35
2	36	37
2	38	39
2	40	41
2	42	43
2	44	45
2	46	47
2	48	49
2	50	51
2	52	53
2	54	55
2	56	57
2	58	59
2	60	61
2	62	63
2	64	65
2	66	67
2	68	69
2	70	71
2	72	73
2	74	75
2	76	77
2	78	79
2	80	81
2	82	83
2	84	85
2	86	87
2	88	89
2	90	91
2	92	93
2	94	95
2	96	97
2	98	99
2	100	101
2	102	103
2	104	105
2	106	107
2	108	109
2	110	111
2	112	113
2	114	115
2	116	117
2	118	119
2	120	121
2	122	123
2	124	125
2	126	127
2	128	129
2	130	131
2	132	133
2	134	135
2	136	137
2	138	139
2	140	141
2	142	143
2	144	145
2	146	147
2	148	149
2	150	151
2	152	153
2	154	155
2	156	157
2	158	159
2	160	161
2	162	163
2	164	165
2	166	167
2	168	169
2	170	171
2	172	173
2	174	175
2	176	177
2	178	179
2	180	181
2	182	183
2	184	185
2	186	187
2	188	189
2	190	191
2	192	193
2	194	195
2	196	197
2	198	199
2	200	201
2	202	203
2	204	205
2	206	207
2	208	209
2	210	211
2	212	213
2	214	215
2	216	217
2	218	219
2	220	221
2	222	223
2	224	225
2	226	227
2	228	229
2	230	231
2	232	233
2	234	235
2	236	237
2	238	239
2	240	241
2	242	243
2	244	245
2	246	247
2	248	249
2	250	251
2	252	253
2	254	255
2	256	257
2	258	259
2	260	261
2	262	263
2	264	265
2	266	267
2	268	269
2	270	271
2	272	273
2	274	275
2	276	277
2	278	279
2	280	281
2	282	283
2	284	285
2	286	287
2	288	289
2	290	291
2	292	293
2	294	295
2	296	297
2	298	299
2	300	301
2	302	303
2	304	305
2	306	307
2	308	309
2	310	311
2	312	313
2	314	315
2	316	317
2	318	319
2	320	321
2	322	323
2	324	325
2	326	327
2	328	329
2	330	331
2	332	333
2	334	335
2	336	337
2	338	339
2	340	341
2	342	343
2	344	345
2	346	347
2	348	349
2	350	351
2	352	353
2	354	355
2	356	357
2	358	359
2	360	361
2	362	363
2	364	365
2	366	367
2	368	369
2	370	371
2	372	373
2	374	375
2	376	377
2	378	379
2	380	381
2	382	383
2	384	385
2	386	387
2	388	389
2	390	391
2	392	393
2	394	395
2	396	397
2	398	399
2	400	401
2	402	403
2	404	405
2	406	407
2	408	409
2	410	411
2	412	413
2	414	415
2	416	417
2	418	419
2	420	421
2	422	423
2	424	425
2	426	427
2	428	429
2	430	431
2	432	433
2	434	435
2	436	437
2	438	439
2	440	441
2	442	443
2	444	445
2	446	447
2	448	449
2	450	451
2	452	453
2	454	455
2	456	457
2	458	459
2	460	461
2	462	463
2	464	465
2	466	467
2	468	469
2	470	471
2	472	473
2	474	475
2	476	477
2	478	479
2	480	481
2	482	483
2	484	485
2	486	487
2	488	489
2	490	491
2	492	493
2	494	495
2	496	497
2	498	499
2	500	501
2	502	503
2	504	505
2	506	507
2	508	509
2	510	511

CELL_TYPES 256
 3 3 3 3 3 3 3 3 3 3 3 3 3 3 3 3 3 3 3 3 3 3 3 3 3 3 3 3 3 3 3 3 3 3 3 3 3 3 3 3 3 3 3 3 3 3 3 3 3 3 3 3 3 3 3 3 3 3 3 3 3 3 3 3 3 3 3 3 3 3 3 3 3 3 3 3 3 3 3 3 3 3 3 3 3 3 3 3 3 3 3 3 3 3 3 3 3 3 3 3 3 3 3 3 3 3 3 3 3 3 3 3 3 3 3 3 3 3 3 3 3 3 3 3 3 3 3 3 3 3 3 3 3 3 3 3 3 3 3 3 3 3 3 3 3 3 3 3 3 3 3 3 3 3 3 3 3 3 3 3 3 3 3 3 3 3 3 3 3 3 3 3 3 3 3 3 3 3 3 3 3 3 3 3 3 3 3 3 3 3 3 3 3 3 3 3 3 3 3 3 3 3 3 3 3 3 3 3 3 3 3 3 3 3 3 3 3 3 3 3 3 3 3 3 3 3 3 3 3 3 3 3 3 3 3 3 3 3 3 3 3 3 3 3 3 3 3 3 3 3 3 3 3 3 3 3
POINT_DATA 512
VECTORS electric_field double
-12.5663 0 0
-12.5173 0 0
-12.5173 0 0
-12.4682 0 0
-12.4682 0 0
-12.4191 0 0
-12.4191 0 0
-12.37 0 0
-12.37 0 0
-12.3209 0 0
-12.3209 0 0
-12.2718 0 0
-12.2718 0 0
-12.2227 0 0
-12.2227 0 0
-12.1736 0 0
-12.1736 0 0
-12.1246 0 0
-12.1246 0 0
-12.0755 0 0
-12.0755 0 0
-12.0264 0 0
-12.0264 0 0
-11.9773 0 0
-11.9773 0 0
-11.9282 0 0
-11.9282 0 0
-11.8791 0 0
-11.8791 0 0
-11.83 0 0
-11.83 0 0
-11.7809 0 0
-11.7809 0 0
-11.7319 0 0
-11.7319 0 0
-11.6828 0 0
-11.6828 0 0
-11.6337 0 0
-11.6337 0 0
-11.5846 0 0
-11.5846 0 0
-11.5355 0 0
-11.5355 0 0
-11.4864 0 0
-11.4864 0 0
-11.4373 0 0
-11.4373 0 0
-11.3882 0 0
-11.3882 0 0
-11.3392 0 0
-11.3392 0 0
-11.2901 0 0
-11.2901 0 0
-11.241 0 0
-11.241 0 0
-11.1919 0 0
-11.1919 0 0
-11.1428 0 0
-11.1428 0 0
-11.0937 0 0
-11.0937 0 0
-11.0446 0 0
-11.0446 0 0
-10.9955 0 0
-10.9955 0 0
-10.9465 0 0
-10.9465 0 0
-10.8974 0 0
-10.8974 0 0
-10.8483 0 0
-10.8483 0 0
-10.7992 0 0
-10.7992 0 0
-10.7501 0 0
-10.7501 0 0
-10.701 0 0
-10.701 0 0
-10.6519 0 0
-10.6519 0 0
-10.6028 0 0
-10.6028 0 0
-10.5538 0 0
-10.5538 0 0
-10.5047 0 0
-10.5047 0 0
-10.4556 0 0
-10.4556 0 0
-10.4065 0 0
-10.4065 0 0
-10.3574 0 0
-10.3574 0 0
-10.3083 0 0
-10.3083 0 0
-10.2592 0 0
-10.2592 0 0
-10.2101 0 0
-10.2101 0 0
-10.1611 0 0
-10.1611 0 0
-10.112 0 0
-10.112 0 0
-10.0629 0 0
-10.0629 0 0
-10.0138 0 0
-10.0138 0 0
-9.96471 0 0
-9.96471 0 0
-9.91563 0 0
-9.91563 0 0
-9.86654 0 0
-9.86654 0 0
-9.81745 0 0
-9.81745 0 0
-9.76836 0 0
-9.76836 0 0
-9.71928 0 0
-9.71928 0 0
-9.67019 0 0
-9.67019 0 0
-9.6211 0 0
-9.6211 0 0
-9.57201 0 0
-9.57201 0 0
-9.52293 0 0
-9.52293 0 0
-9.47384 0 0
-9.47384 0 0
-9.42475 0 0
-9.42475 0 0
-9.37566 0 0
-9.37566 0 0
-9.32658 0 0
-9.32658 0 0
-9.27749 0 0
-9.27749 0 0
-9.2284 0 0
-9.2284 0 0
-9.17931 0 0
-9.17931 0 0
-9.13023 0 0
-9.13023 0 0
-9.08114 0 0
-9.08114 0 0
-9.03205 0 0
-9.03205 0 0
-8.98297 0 0
-8.98297 0 0
-8.93388 0 0
-8.93388 0 0
-8.88479 0 0
-8.88479 0 0
-8.8357 0 0
-8.8357 0 0
-8.78662 0 0
-8.78662 0 0
-8.73753 0 0
-8.73753 0 0
-8.68844 0 0
-8.68844 0 0
-8.63935 0 0
-8.63935 0 0
-8.59027 0 0
-8.59027 0 0
-8.54118 0 0
-8.54118 0 0
-8.49209 0 0
-8.49209 0 0
-8.443 0 0
-8.443 0 0
-8.39392 0 0
-8.39392 0 0
-8.34483 0 0
-8.34483 0 0
-8.29574 0 0
-8.29574 0 0
-8.24665 0 0
-8.24665 0 0
-8.19757 0 0
-8.19757 0 0
-8.14848 0 0
-8.14848 0 0
-8.09939 0 0
-8.09939 0 0
-8.0503 0 0
-8.0503 0 0
-8.00122 0 0
-8.00122 0 0
-7.95213 0 0
-7.95213 0 0
-7.90304 0 0
-7.90304 0 0
-7.85396 0 0
-7.85396 0 0
-7.80487 0 0
-7.80487 0 0
-7.75578 0 0
-7.75578 0 0
-7.70669 0 0
-7.70669 0 0
-7.65761 0 0
-7.65761 0 0
-7.60852 0 0
-7.60852 0 0
-7.55943 0 0
-7.55943 0 0
-7.51034 0 0
-7.51034 0 0
-7.46126 0 0
-7.46126 0 0
-7.41217 0 0
-7.41217 0 0
-7.36308 0 0
-7.36308 0 0
-7.31399 0 0
-7.31399 0 0
-7.26491 0 0
-7.26491 0 0
-7.21582 0 0
-7.21582 0 0
-7.16673 0 0
-7.16673 0 0
-7.11764 0 0
-7.11764 0 0
-7.06856 0 0
-7.06856 0 0
-7.01947 0 0
-7.01947 0 0
-6.97038 0 0
-6.97038 0 0
-6.9213 0 0
-6.9213 0 0
-6.87221 0 0
-6.87221 0 0
-6.82312 0 0
-6.82312 0 0
-6.77403 0 0
-6.77403 0 0
-6.72495 0 0
-6.72495 0 0
-6.67586 0 0
-6.67586 0 0
-6.62677 0 0
-6.62677 0 0
-6.57768 0 0
-6.57768 0 0
-6.5286 0 0
-6.5286 0 0
-6.47951 0 0
-6.47951 0 0
-6.43042 0 0
-6.43042 0 0
-6.38133 0 0
-6.38133 0 0
-6.33225 0 0
-6.33225 0 0
-6.28316 0 0
-6.28316 0 0
-6.23407 0 0
-6.23407 0 0
-6.18498 0 0
-6.18498 0 0
-6.1359 0 0
-6.1359 0 0
-6.08681 0 0
-6.08681 0 0
-6.03772 0 0
-6.03772 0 0
-5.98863 0 0
-5.98863 0 0
-5.93955 0 0
-5.93955 0 0
-5.89046 0 0
-5.89046 0 0
-5.84137 0 0
-5.84137 0 0
-5.79228 0 0
-5.79228 0 0
-5.7432 0 0
-5.7432 0 0
-5.69411 0 0
-5.69411 0 0
-5.64502 0 0
-5.64502 0 0
-5.59594 0 0
-5.59594 0 0
-5.54685 0 0
-5.54685 0 0
-5.49776 0 0
-5.49776 0 0
-5.44867 0 0
-5.44867 0 0
-5.39959 0 0
-5.39959 0 0
-5.3505 0 0
-5.3505 0 0
-5.30141 0 0
-5.30141 0 0
-5.25232 0 0
-5.25232 0 0
-5.20324 0 0
-5.20324 0 0
-5.15415 0 0
-5.15415 0 0
-5.10506 0 0
-5.10506 0 0
-5.05597 0 0
-5.05597 0 0
-5.00689 0 0
-5.00689 0 0
-4.9578 0 0
-4.9578 0 0
-4.90871 0 0
-4.90871 0 0
-4.85962 0 0
-4.85962 0 0
-4.81054 0 0
-4.81054 0 0
-4.76145 0 0
-4.76145 0 0
-4.71236 0 0
-4.71236 0 0
-4.66328 0 0
-4.66328 0 0
-4.61419 0 0
-4.61419 0 0
-4.5651 0 0
-4.5651 0 0
-4.51601 0 0
-4.51601 0 0
-4.46693 0 0
-4.46693 0 0
-4.41784 0 0
-4.41784 0 0
-4.36875 0 0
-4.36875 0 0
-4.31966 0 0
-4.31966 0 0
-4.27058 0 0
-4.27058 0 0
-4.22149 0 0
-4.22149 0 0
-4.1724 0 0
-4.1724 0 0
-4.12331 0 0
-4.12331 0 0
-4.07423 0 0
-4.07423 0 0
-4.02514 0 0
-4.02514 0 0
-3.97605 0 0
-3.97605 0 0
-3.92696 0 0
-3.92696 0 0
-3.87788 0 0
-3.87788 0 0
-3.82879 0 0
-3.82879 0 0
-3.7797 0 0
-3.7797 0 0
-3.73061 0 0
-3.73061 0 0
-3.68153 0 0
-3.68153 0 0
-3.63244 0 0
-3.63244 0 0
-3.58335 0 0
-3.58335 0 0
-3.53427 0 0
-3.53427 0 0
-3.48518 0 0
-3.48518 0 0
-3.43609 0 0
-3.43609 0 0
-3.387 0 0
-3.387 0 0
-3.33792 0 0
-3.33792 0 0
-3.28883 0 0
-3.28883 0 0
-3.23974 0 0
-3.23974 0 0
-3.19065 0 0
-3.19065 0 0
-3.14157 0 0
-3.14157 0 0
-3.09248 0 0
-3.09248 0 0
-3.04339 0 0
-3.04339 0 0
-2.9943 0 0
-2.9943 0 0
-2.94522 0 0
-2.94522 0 0
-2.89613 0 0
-2.89613 0 0
-2.84704 0 0
-2.84704 0 0
-2.79795 0 0
-2.79795 0 0
-2.74887 0 0
-2.74887 0 0
-2.69978 0 0
-2.69978 0 0
-2.65069 0 0
-2.65069 0 0
-2.60161 0 0
-2.60161 0 0
-2.55252 0 0
-2.55252 0 0
-2.50343 0 0
-2.50343 0 0
-2.45434 0 0
-2.45434 0 0
-2.40526 0 0
-2.40526 0 0
-2.35617 0 0
-2.35617 0 0
-2.30708 0 0
-2.30708 0 0
-2.25799 0 0
-2.25799 0 0
-2.20891 0 0
-2.20891 0 0
-2.15982 0 0
-2.15982 0 0
-2.11073 0 0
-2.11073 0 0
-2.06164 0 0
-2.06164 0 0
-2.01256 0 0
-2.01256 0 0
-1.96347 0 0
-1.96347 0 0
-1.91438 0 0
-1.91438 0 0
-1.86529 0 0
-1.86529 0 0
-1.81621 0 0
-1.81621 0 0
-1.76712 0 0
-1.76712 0 0
-1.71803 0 0
-1.71803 0 0
-1.66894 0 0
-1.66894 0 0
-1.61986 0 0
-1.61986 0 0
-1.57079 0 0
-1.57079 0 0
-1.52171 0 0
-1.52171 0 0
-1.47262 0 0
-1.47262 0 0
-1.42353 0 0
-1.42353 0 0
-1.37445 0 0
-1.37445 0 0
-1.32536 0 0
-1.32536 0 0
-1.27627 0 0
-1.27627 0 0
-1.22718 0 0
-1.22718 0 0
-1.1781 0 0
-1.1781 0 0
-1.12901 0 0
-1.12901 0 0
-1.07992 0 0
-1.07992 0 0
-1.03083 0 0
-1.03083 0 0
-0.981746 0 0
-0.981746 0 0
-0.932659 0 0
-0.932659 0 0
-0.883571 0 0
-0.883571 0 0
-0.834484 0 0
-0.834484 0 0
-0.785397 0 0
-0.785397 0 0
-0.736309 0 0
-0.736309 0 0
-0.687222 0 0
-0.687222 0 0
-0.638134 0 0
-0.638134 0 0
-0.589047 0 0
-0.589047 0 0
-0.53996 0 0
-0.53996 0 0
-0.490872 0 0
-0.490872 0 0
-0.441785 0 0
-0.441785 0 0
-0.392697 0 0
-0.392697 0 0
-0.34361 0 0
-0.34361 0 0
-0.294523 0 0
-0.294523 0 0
-0.245435 0 0
-0.245435 0 0
-0.19635 0 0
-0.19635 0 0
-0.147262 0 0
-0.147262 0 0
-0.0981748 0 0
-0.0981748 0 0
-0.0490874 0 0
-0.0490874 0 0
-7.27596e-12 0 0
SCALARS potential double 1
LOOKUP_TABLE default
0 0.615644 0.615644 1.22888 1.22888 1.8397 1.8397 2.44812 2.44812 3.05413 3.05413 3.65772 3.65772 4.25891 4.25891 4.85769 4.85769 5.45405 5.45405 6.04801 6.04801 6.63956 6.63956 7.2287 7.2287 7.81543 7.81543 8.39975 8.39975 8.98166 8.98166 9.56116 9.56116 10.1382 10.1382 10.7129 10.7129 11.2852 11.2852 11.8551 11.8551 12.4225 12.4225 12.9876 12.9876 13.5502 13.5502 14.1104 14.1104 14.6682 14.6682 15.2236 15.2236 15.7766 15.7766 16.3272 16.3272 16.8754 16.8754 17.4212 17.4212 17.9645 17.9645 18.5055 18.5055 19.044 19.044 19.5801 19.5801 20.1139 20.1139 20.6452 20.6452 21.1741 21.1741 21.7006 21.7006 22.2246 22.2246 22.7463 22.7463 23.2656 23.2656 23.7824 23.7824 24.2969 24.2969 24.8089 24.8089 25.3185 25.3185 25.8257 25.8257 26.3305 26.3305 26.8329 26.8329 27.3329 27.3329 27.8305 27.8305 28.3257 28.3257 28.8184 28.8184 29.3088 29.3088 29.7967 29.7967 30.2822 30.2822 30.7653 30.7653 31.246 31.246 31.7243 31.7243 32.2002 32.2002 32.6737 32.6737 33.1448 33.1448 33.6134 33.6134 34.0797 34.0797 34.5435 34.5435 35.005 35.005 35.464 35.464 35.9206 35.9206 36.3748 36.3748 36.8266 36.8266 37.276 37.276 37.723 37.723 38.1675 38.1675 38.6097 38.6097 39.0494 39.0494 39.4868 39.4868 39.9217 39.9217 40.3542 40.3542 40.7843 40.7843 41.212 41.212 41.6373 41.6373 42.0602 42.0602 42.4806 42.4806 42.8987 42.8987 43.3143 43.3143 43.7276 43.7276 44.1384 44.1384 44.5468 44.5468 44.9529 44.9529 45.3565 45.3565 45.7576 45.7576 46.1564 46.1564 46.5528 46.5528 46.9468 46.9468 47.3383 47.3383 47.7275 47.7275 48.1142 48.1142 48.4985 48.4985 48.8804 48.8804 49.2599 49.2599 49.637 49.637 50.0117 50.0117 50.384 50.384 50.7539 50.7539 51.1213 51.1213 51.4864 51.4864 51.849 51.849 52.2093 52.2093 52.5671 52.5671 52.9225 52.9225 53.2755 53.2755 53.6261 53.6261 53.9743 53.9743 54.32 54.32 54.6634 54.6634 55.0043 55.0043 55.3429 55.3429 55.679 55.679 56.0127 56.0127 56.3441 56.3441 56.673 56.673 56.9995 56.9995 57.3235 57.3235 57.6452 57.6452 57.9645 57.9645 58.2813 58.2813 58.5958 58.5958 58.9078 58.9078 59.2175 59.2175 59.5247 59.5247 59.8295 59.8295 60.1319 60.1319 60.4319 60.4319 60.7295 60.7295 61.0246 61.0246 61.3174 61.3174 61.6077 61.6077 61.8957 61.8957 62.1812 62.1812 62.4643 62.4643 62.7451 62.7451 63.0234 63.0234 63.2993 63.2993 63.5727 63.5727 63.8438 63.8438 64.1125 64.1125 64.3787 64.3787 64.6426 64.6426 64.904 64.904 65.163 65.163 65.4197 65.4197 65.6739 65.6739 65.9257 65.9257 66.1751 66.1751 66.422 66.422 66.6666 66.6666 66.9088 66.9088 67.1485 67.1485 67.3859 67.3859 67.6208 67.6208 67.8533 67.8533 68.0834 68.0834 68.3111 68.3111 68.5364 68.5364 68.7593 68.7593 68.9798 68.9798 69.1979 69.1979 69.4135 69.4135 69.6268 69.6268 69.8376 69.8376 70.046 70.046 70.252 70.252 70.4556 70.4556 70.6568 70.6568 70.8556 70.8556 71.052 71.052 71.246 71.246 71.4375 71.4375 71.6267 71.6267 71.8134 71.8134 71.9978 71.9978 72.1797 72.1797 72.3592 72.3592 72.5363 72.5363 72.711 72.711 72.8833 72.8833 73.0531 73.0531 73.2206 73.2206 73.3857 73.3857 73.5483 73.5483 73.7085 73.7085 73.8664 73.8664 74.0218 74.0218 74.1748 74.1748 74.3254 74.3254 74.4736 74.4736 74.6194 74.6194 74.7627 74.7627 74.9037 74.9037 75.0422 75.0422 75.1784 75.1784 75.3121 75.3121 75.4434 75.4434 75.5723 75.5723 75.6988 75.6988 75.8229 75.8229 75.9446 75.9446 76.0639 76.0639 76.1807 76.1807 76.2952 76.2952 76.4072 76.4072 76.5169 76.5169 76.6241 76.6241 76.7289 76.7289 76.8313 76.8313 76.9313 76.9313 77.0289 77.0289 77.1241 77.1241 77.2168 77.2168 77.3072 77.3072 77.3951 77.3951 77.4807 77.4807 77.5638 77.5638 77.6445 77.6445 77.7228 77.7228 77.7987 77.7987 77.8722 77.8722 77.9433 77.9433 78.012 78.012 78.0783 78.0783 78.1421 78.1421 78.2036 78.2036 78.2626 78.2626 78.3192 78.3192 78.3734 78.3734 78.4252 78.4252 78.4746 78.4746 78.5216 78.5216 78.5662 78.5662 78.6084 78.6084 78.6481 78.6481 78.6855 78.6855 78.7204 78.7204 78.7529 78.7529 78.7831 78.7831 78.8108 78.8108 78.8361 78.8361 78.859 78.859 78.8794 78.8794 78.8975 78.8975 78.9132 78.9132 78.9264 78.9264 78.9373 78.9373 78.9457 78.9457 78.9517 78.9517 78.9553 78.9553 78.9565 
SCALARS x_coordinate double 1
LOOKUP_TABLE default
0 0.0490874 0.0490874 0.0981748 0.0981748 0.147262 0.147262 0.19635 0.19635 0.245437 0.245437 0.294524 0.294524 0.343612 0.343612 0.392699 0.392699 0.441786 0.441786 0.490874 0.490874 0.539961 0.539961 0.589049 0.589049 0.638136 0.638136 0.687223 0.687223 0.736311 0.736311 0.785398 0.785398 0.834486 0.834486 0.883573 0.883573 0.93266 0.93266 0.981748 0.981748 1.03084 1.03084 1.07992 1.07992 1.12901 1.12901 1.1781 1.1781 1.22718 1.22718 1.27627 1.27627 1.32536 1.32536 1.37445 1.37445 1.42353 1.42353 1.47262 1.47262 1.52171 1.52171 1.5708 1.5708 1.61988 1.61988 1.66897 1.66897 1.71806 1.71806 1.76715 1.76715 1.81623 1.81623 1.86532 1.86532 1.91441 1.91441 1.9635 1.9635 2.01258 2.01258 2.06167 2.06167 2.11076 2.11076 2.15984 2.15984 2.20893 2.20893 2.25802 2.25802 2.30711 2.30711 2.35619 2.35619 2.40528 2.40528 2.45437 2.45437 2.50346 2.50346 2.55254 2.55254 2.60163 2.60163 2.65072 2.65072 2.69981 2.69981 2.74889 2.74889 2.79798 2.79798 2.84707 2.84707 2.89616 2.89616 2.94524 2.94524 2.99433 2.99433 3.04342 3.04342 3.09251 3.09251 3.14159 3.14159 3.19068 3.19068 3.23977 3.23977 3.28885 3.28885 3.33794 3.33794 3.38703 3.38703 3.43612 3.43612 3.4852 3.4852 3.53429 3.53429 3.58338 3.58338 3.63247 3.63247 3.68155 3.68155 3.73064 3.73064 3.77973 3.77973 3.82882 3.82882 3.8779 3.8779 3.92699 3.92699 3.97608 3.97608 4.02517 4.02517 4.07425 4.07425 4.12334 4.12334 4.17243 4.17243 4.22152 4.22152 4.2706 4.2706 4.31969 4.31969 4.36878 4.36878 4.41786 4.41786 4.46695 4.46695 4.51604 4.51604 4.56513 4.56513 4.61421 4.61421 4.6633 4.6633 4.71239 4.71239 4.76148 4.76148 4.81056 4.81056 4.85965 4.85965 4.90874 4.90874 4.95783 4.95783 5.00691 5.00691 5.056 5.056 5.10509 5.10509 5.15418 5.15418 5.20326 5.20326 5.25235 5.25235 5.30144 5.30144 5.35052 5.35052 5.39961 5.39961 5.4487 5.4487 5.49779 5.49779 5.54687 5.54687 5.59596 5.59596 5.64505 5.64505 5.69414 5.69414 5.74322 5.74322 5.79231 5.79231 5.8414 5.8414 5.89049 5.89049 5.93957 5.93957 5.98866 5.98866 6.03775 6.03775 6.08684 6.08684 6.13592 6.13592 6.18501 6.18501 6.2341 6.2341 6.28319 6.28319 6.33227 6.33227 6.38136 6.38136 6.43045 6.43045 6.47953 6.47953 6.52862 6.52862 6.57771 6.57771 6.6268 6.6268 6.67588 6.67588 6.72497 6.72497 6.77406 6.77406 6.82315 6.82315 6.87223 6.87223 6.92132 6.92132 6.97041 6.97041 7.0195 7.0195 7.06858 7.06858 7.11767 7.11767 7.16676 7.16676 7.21585 7.21585 7.26493 7.26493 7.31402 7.31402 7.36311 7.36311 7.4122 7.4122 7.46128 7.46128 7.51037 7.51037 7.55946 7.55946 7.60854 7.60854 7.65763 7.65763 7.70672 7.70672 7.75581 7.75581 7.80489 7.80489 7.85398 7.85398 7.90307 7.90307 7.95216 7.95216 8.00124 8.00124 8.05033 8.05033 8.09942 8.09942 8.14851 8.14851 8.19759 8.19759 8.24668 8.24668 8.29577 8.29577 8.34486 8.34486 8.39394 8.39394 8.44303 8.44303 8.49212 8.49212 8.54121 8.54121 8.59029 8.59029 8.63938 8.63938 8.68847 8.68847 8.73755 8.73755 8.78664 8.78664 8.83573 8.83573 8.88482 8.88482 8.9339 8.9339 8.98299 8.98299 9.03208 9.03208 9.08117 9.08117 9.13025 9.13025 9.17934 9.17934 9.22843 9.22843 9.27752 9.27752 9.3266 9.3266 9.37569 9.37569 9.42478 9.42478 9.47387 9.47387 9.52295 9.52295 9.57204 9.57204 9.62113 9.62113 9.67021 9.67021 9.7193 9.7193 9.76839 9.76839 9.81748 9.81748 9.86656 9.86656 9.91565 9.91565 9.96474 9.96474 10.0138 10.0138 10.0629 10.0629 10.112 10.112 10.1611 10.1611 10.2102 10.2102 10.2593 10.2593 10.3084 10.3084 10.3574 10.3574 10.4065 10.4065 10.4556 10.4556 10.5047 10.5047 10.5538 10.5538 10.6029 10.6029 10.652 10.652 10.701 10.701 10.7501 10.7501 10.7992 10.7992 10.8483 10.8483 10.8974 10.8974 10.9465 10.9465 10.9956 10.9956 11.0447 11.0447 11.0937 11.0937 11.1428 11.1428 11.1919 11.1919 11.241 11.241 11.2901 11.2901 11.3392 11.3392 11.3883 11.3883 11.4374 11.4374 11.4864 11.4864 11.5355 11.5355 11.5846 11.5846 11.6337 11.6337 11.6828 11.6828 11.7319 11.7319 11.781 11.781 11.8301 11.8301 11.8791 11.8791 11.9282 11.9282 11.9773 11.9773 12.0264 12.0264 12.0755 12.0755 12.1246 12.1246 12.1737 12.1737 12.2228 12.2228 12.2718 12.2718 12.3209 12.3209 12.37 12.37 12.4191 12.4191 12.4682 12.4682 12.5173 12.5173 12.5664 
