# vtk DataFile Version 3.0
#This file was generated by the deal.II library on 2026/3/10 at 19:07:39
ASCII
DATASET UNSTRUCTURED_GRID

POINTS 512 double
0 0 0
0.0490874 0 0
0.0490874 0 0
0.0981748 0 0
0.0981748 0 0
0.147262 0 0
0.147262 0 0
0.19635 0 0
0.19635 0 0
0.245437 0 0
0.245437 0 0
0.294524 0 0
0.294524 0 0
0.343612 0 0
0.343612 0 0
0.392699 0 0
0.392699 0 0
0.441786 0 0
0.441786 0 0
0.490874 0 0
0.490874 0 0
0.539961 0 0
0.539961 0 0
0.589049 0 0
0.589049 0 0
0.638136 0 0
0.638136 0 0
0.687223 0 0
0.687223 0 0
0.736311 0 0
0.736311 0 0
0.785398 0 0
0.785398 0 0
0.834486 0 0
0.834486 0 0
0.883573 0 0
0.883573 0 0
0.93266 0 0
0.93266 0 0
0.981748 0 0
0.981748 0 0
1.03084 0 0
1.03084 0 0
1.07992 0 0
1.07992 0 0
1.12901 0 0
1.12901 0 0
1.1781 0 0
1.1781 0 0
1.22718 0 0
1.22718 0 0
1.27627 0 0
1.27627 0 0
1.32536 0 0
1.32536 0 0
1.37445 0 0
1.37445 0 0
1.42353 0 0
1.42353 0 0
1.47262 0 0
1.47262 0 0
1.52171 0 0
1.52171 0 0
1.5708 0 0
1.5708 0 0
1.61988 0 0
1.61988 0 0
1.66897 0 0
1.66897 0 0
1.71806 0 0
1.71806 0 0
1.76715 0 0
1.76715 0 0
1.81623 0 0
1.81623 0 0
1.86532 0 0
1.86532 0 0
1.91441 0 0
1.91441 0 0
1.9635 0 0
1.9635 0 0
2.01258 0 0
2.01258 0 0
2.06167 0 0
2.06167 0 0
2.11076 0 0
2.11076 0 0
2.15984 0 0
2.15984 0 0
2.20893 0 0
2.20893 0 0
2.25802 0 0
2.25802 0 0
2.30711 0 0
2.30711 0 0
2.35619 0 0
2.35619 0 0
2.40528 0 0
2.40528 0 0
2.45437 0 0
2.45437 0 0
2.50346 0 0
2.50346 0 0
2.55254 0 0
2.55254 0 0
2.60163 0 0
2.60163 0 0
2.65072 0 0
2.65072 0 0
2.69981 0 0
2.69981 0 0
2.74889 0 0
2.74889 0 0
2.79798 0 0
2.79798 0 0
2.84707 0 0
2.84707 0 0
2.89616 0 0
2.89616 0 0
2.94524 0 0
2.94524 0 0
2.99433 0 0
2.99433 0 0
3.04342 0 0
3.04342 0 0
3.09251 0 0
3.09251 0 0
3.14159 0 0
3.14159 0 0
3.19068 0 0
3.19068 0 0
3.23977 0 0
3.23977 0 0
3.28885 0 0
3.28885 0 0
3.33794 0 0
3.33794 0 0
3.38703 0 0
3.38703 0 0
3.43612 0 0
3.43612 0 0
3.4852 0 0
3.4852 0 0
3.53429 0 0
3.53429 0 0
3.58338 0 0
3.58338 0 0
3.63247 0 0
3.63247 0 0
3.68155 0 0
3.68155 0 0
3.73064 0 0
3.73064 0 0
3.77973 0 0
3.77973 0 0
3.82882 0 0
3.82882 0 0
3.8779 0 0
3.8779 0 0
3.92699 0 0
3.92699 0 0
3.97608 0 0
3.97608 0 0
4.02517 0 0
4.02517 0 0
4.07425 0 0
4.07425 0 0
4.12334 0 0
4.12334 0 0
4.17243 0 0
4.17243 0 0
4.22152 0 0
4.22152 0 0
4.2706 0 0
4.2706 0 0
4.31969 0 0
4.31969 0 0
4.36878 0 0
4.36878 0 0
4.41786 0 0
4.41786 0 0
4.46695 0 0
4.46695 0 0
4.51604 0 0
4.51604 0 0
4.56513 0 0
4.56513 0 0
4.61421 0 0
4.61421 0 0
4.6633 0 0
4.6633 0 0
4.71239 0 0
4.71239 0 0
4.76148 0 0
4.76148 0 0
4.81056 0 0
4.81056 0 0
4.85965 0 0
4.85965 0 0
4.90874 0 0
4.90874 0 0
4.95783 0 0
4.95783 0 0
5.00691 0 0
5.00691 0 0
5.056 0 0
5.056 0 0
5.10509 0 0
5.10509 0 0
5.15418 0 0
5.15418 0 0
5.20326 0 0
5.20326 0 0
5.25235 0 0
5.25235 0 0
5.30144 0 0
5.30144 0 0
5.35052 0 0
5.35052 0 0
5.39961 0 0
5.39961 0 0
5.4487 0 0
5.4487 0 0
5.49779 0 0
5.49779 0 0
5.54687 0 0
5.54687 0 0
5.59596 0 0
5.59596 0 0
5.64505 0 0
5.64505 0 0
5.69414 0 0
5.69414 0 0
5.74322 0 0
5.74322 0 0
5.79231 0 0
5.79231 0 0
5.8414 0 0
5.8414 0 0
5.89049 0 0
5.89049 0 0
5.93957 0 0
5.93957 0 0
5.98866 0 0
5.98866 0 0
6.03775 0 0
6.03775 0 0
6.08684 0 0
6.08684 0 0
6.13592 0 0
6.13592 0 0
6.18501 0 0
6.18501 0 0
6.2341 0 0
6.2341 0 0
6.28319 0 0
6.28319 0 0
6.33227 0 0
6.33227 0 0
6.38136 0 0
6.38136 0 0
6.43045 0 0
6.43045 0 0
6.47953 0 0
6.47953 0 0
6.52862 0 0
6.52862 0 0
6.57771 0 0
6.57771 0 0
6.6268 0 0
6.6268 0 0
6.67588 0 0
6.67588 0 0
6.72497 0 0
6.72497 0 0
6.77406 0 0
6.77406 0 0
6.82315 0 0
6.82315 0 0
6.87223 0 0
6.87223 0 0
6.92132 0 0
6.92132 0 0
6.97041 0 0
6.97041 0 0
7.0195 0 0
7.0195 0 0
7.06858 0 0
7.06858 0 0
7.11767 0 0
7.11767 0 0
7.16676 0 0
7.16676 0 0
7.21585 0 0
7.21585 0 0
7.26493 0 0
7.26493 0 0
7.31402 0 0
7.31402 0 0
7.36311 0 0
7.36311 0 0
7.4122 0 0
7.4122 0 0
7.46128 0 0
7.46128 0 0
7.51037 0 0
7.51037 0 0
7.55946 0 0
7.55946 0 0
7.60854 0 0
7.60854 0 0
7.65763 0 0
7.65763 0 0
7.70672 0 0
7.70672 0 0
7.75581 0 0
7.75581 0 0
7.80489 0 0
7.80489 0 0
7.85398 0 0
7.85398 0 0
7.90307 0 0
7.90307 0 0
7.95216 0 0
7.95216 0 0
8.00124 0 0
8.00124 0 0
8.05033 0 0
8.05033 0 0
8.09942 0 0
8.09942 0 0
8.14851 0 0
8.14851 0 0
8.19759 0 0
8.19759 0 0
8.24668 0 0
8.24668 0 0
8.29577 0 0
8.29577 0 0
8.34486 0 0
8.34486 0 0
8.39394 0 0
8.39394 0 0
8.44303 0 0
8.44303 0 0
8.49212 0 0
8.49212 0 0
8.54121 0 0
8.54121 0 0
8.59029 0 0
8.59029 0 0
8.63938 0 0
8.63938 0 0
8.68847 0 0
8.68847 0 0
8.73755 0 0
8.73755 0 0
8.78664 0 0
8.78664 0 0
8.83573 0 0
8.83573 0 0
8.88482 0 0
8.88482 0 0
8.9339 0 0
8.9339 0 0
8.98299 0 0
8.98299 0 0
9.03208 0 0
9.03208 0 0
9.08117 0 0
9.08117 0 0
9.13025 0 0
9.13025 0 0
9.17934 0 0
9.17934 0 0
9.22843 0 0
9.22843 0 0
9.27752 0 0
9.27752 0 0
9.3266 0 0
9.3266 0 0
9.37569 0 0
9.37569 0 0
9.42478 0 0
9.42478 0 0
9.47387 0 0
9.47387 0 0
9.52295 0 0
9.52295 0 0
9.57204 0 0
9.57204 0 0
9.62113 0 0
9.62113 0 0
9.67021 0 0
9.67021 0 0
9.7193 0 0
9.7193 0 0
9.76839 0 0
9.76839 0 0
9.81748 0 0
9.81748 0 0
9.86656 0 0
9.86656 0 0
9.91565 0 0
9.91565 0 0
9.96474 0 0
9.96474 0 0
10.0138 0 0
10.0138 0 0
10.0629 0 0
10.0629 0 0
10.112 0 0
10.112 0 0
10.1611 0 0
10.1611 0 0
10.2102 0 0
10.2102 0 0
10.2593 0 0
10.2593 0 0
10.3084 0 0
10.3084 0 0
10.3574 0 0
10.3574 0 0
10.4065 0 0
10.4065 0 0
10.4556 0 0
10.4556 0 0
10.5047 0 0
10.5047 0 0
10.5538 0 0
10.5538 0 0
10.6029 0 0
10.6029 0 0
10.652 0 0
10.652 0 0
10.701 0 0
10.701 0 0
10.7501 0 0
10.7501 0 0
10.7992 0 0
10.7992 0 0
10.8483 0 0
10.8483 0 0
10.8974 0 0
10.8974 0 0
10.9465 0 0
10.9465 0 0
10.9956 0 0
10.9956 0 0
11.0447 0 0
11.0447 0 0
11.0937 0 0
11.0937 0 0
11.1428 0 0
11.1428 0 0
11.1919 0 0
11.1919 0 0
11.241 0 0
11.241 0 0
11.2901 0 0
11.2901 0 0
11.3392 0 0
11.3392 0 0
11.3883 0 0
11.3883 0 0
11.4374 0 0
11.4374 0 0
11.4864 0 0
11.4864 0 0
11.5355 0 0
11.5355 0 0
11.5846 0 0
11.5846 0 0
11.6337 0 0
11.6337 0 0
11.6828 0 0
11.6828 0 0
11.7319 0 0
11.7319 0 0
11.781 0 0
11.781 0 0
11.8301 0 0
11.8301 0 0
11.8791 0 0
11.8791 0 0
11.9282 0 0
11.9282 0 0
11.9773 0 0
11.9773 0 0
12.0264 0 0
12.0264 0 0
12.0755 0 0
12.0755 0 0
12.1246 0 0
12.1246 0 0
12.1737 0 0
12.1737 0 0
12.2228 0 0
12.2228 0 0
12.2718 0 0
12.2718 0 0
12.3209 0 0
12.3209 0 0
12.37 0 0
12.37 0 0
12.4191 0 0
12.4191 0 0
12.4682 0 0
12.4682 0 0
12.5173 0 0
12.5173 0 0
12.5664 0 0

CELLS 256 768
2	0	1
2	2	3
2	4	5
2	6	7
2	8	9
2	10	11
2	12	13
2	14	15
2	16	17
2	18	19
2	20	21
2	22	23
2	24	25
2	26	27
2	28	29
2	30	31
2	32	33
2	34	35
2	36	37
2	38	39
2	40	41
2	42	43
2	44	45
2	46	47
2	48	49
2	50	51
2	52	53
2	54	55
2	56	57
2	58	59
2	60	61
2	62	63
2	64	65
2	66	67
2	68	69
2	70	71
2	72	73
2	74	75
2	76	77
2	78	79
2	80	81
2	82	83
2	84	85
2	86	87
2	88	89
2	90	91
2	92	93
2	94	95
2	96	97
2	98	99
2	100	101
2	102	103
2	104	105
2	106	107
2	108	109
2	110	111
2	112	113
2	114	115
2	116	117
2	118	119
2	120	121
2	122	123
2	124	125
2	126	127
2	128	129
2	130	131
2	132	133
2	134	135
2	136	137
2	138	139
2	140	141
2	142	143
2	144	145
2	146	147
2	148	149
2	150	151
2	152	153
2	154	155
2	156	157
2	158	159
2	160	161
2	162	163
2	164	165
2	166	167
2	168	169
2	170	171
2	172	173
2	174	175
2	176	177
2	178	179
2	180	181
2	182	183
2	184	185
2	186	187
2	188	189
2	190	191
2	192	193
2	194	195
2	196	197
2	198	199
2	200	201
2	202	203
2	204	205
2	206	207
2	208	209
2	210	211
2	212	213
2	214	215
2	216	217
2	218	219
2	220	221
2	222	223
2	224	225
2	226	227
2	228	229
2	230	231
2	232	233
2	234	235
2	236	237
2	238	239
2	240	241
2	242	243
2	244	245
2	246	247
2	248	249
2	250	251
2	252	253
2	254	255
2	256	257
2	258	259
2	260	261
2	262	263
2	264	265
2	266	267
2	268	269
2	270	271
2	272	273
2	274	275
2	276	277
2	278	279
2	280	281
2	282	283
2	284	285
2	286	287
2	288	289
2	290	291
2	292	293
2	294	295
2	296	297
2	298	299
2	300	301
2	302	303
2	304	305
2	306	307
2	308	309
2	310	311
2	312	313
2	314	315
2	316	317
2	318	319
2	320	321
2	322	323
2	324	325
2	326	327
2	328	329
2	330	331
2	332	333
2	334	335
2	336	337
2	338	339
2	340	341
2	342	343
2	344	345
2	346	347
2	348	349
2	350	351
2	352	353
2	354	355
2	356	357
2	358	359
2	360	361
2	362	363
2	364	365
2	366	367
2	368	369
2	370	371
2	372	373
2	374	375
2	376	377
2	378	379
2	380	381
2	382	383
2	384	385
2	386	387
2	388	389
2	390	391
2	392	393
2	394	395
2	396	397
2	398	399
2	400	401
2	402	403
2	404	405
2	406	407
2	408	409
2	410	411
2	412	413
2	414	415
2	416	417
2	418	419
2	420	421
2	422	423
2	424	425
2	426	427
2	428	429
2	430	431
2	432	433
2	434	435
2	436	437
2	438	439
2	440	441
2	442	443
2	444	445
2	446	447
2	448	449
2	450	451
2	452	453
2	454	455
2	456	457
2	458	459
2	460	461
2	462	463
2	464	465
2	466	467
2	468	469
2	470	471
2	472	473
2	474	475
2	476	477
2	478	479
2	480	481
2	482	483
2	484	485
2	486	487
2	488	489
2	490	491
2	492	493
2	494	495
2	496	497
2	498	499
2	500	501
2	502	503
2	504	505
2	506	507
2	508	509
2	510	511

CELL_TYPES 256
 3 3 3 3 3 3 3 3 3 3 3 3 3 3 3 3 3 3 3 3 3 3 3 3 3 3 3 3 3 3 3 3 3 3 3 3 3 3 3 3 3 3 3 3 3 3 3 3 3 3 3 3 3 3 3 3 3 3 3 3 3 3 3 3 3 3 3 3 3 3 3 3 3 3 3 3 3 3 3 3 3 3 3 3 3 3 3 3 3 3 3 3 3 3 3 3 3 3 3 3 3 3 3 3 3 3 3 3 3 3 3 3 3 3 3 3 3 3 3 3 3 3 3 3 3 3 3 3 3 3 3 3 3 3 3 3 3 3 3 3 3 3 3 3 3 3 3 3 3 3 3 3 3 3 3 3 3 3 3 3 3 3 3 3 3 3 3 3 3 3 3 3 3 3 3 3 3 3 3 3 3 3 3 3 3 3 3 3 3 3 3 3 3 3 3 3 3 3 3 3 3 3 3 3 3 3 3 3 3 3 3 3 3 3 3 3 3 3 3 3 3 3 3 3 3 3 3 3 3 3 3 3 3 3 3 3 3 3 3 3 3 3 3 3 3 3 3 3 3 3 3 3 3 3 3 3
POINT_DATA 512
VECTORS electric_field double
-12.5662 0 0
-12.5171 0 0
-12.5171 0 0
-12.4681 0 0
-12.4681 0 0
-12.419 0 0
-12.419 0 0
-12.3699 0 0
-12.3699 0 0
-12.3208 0 0
-12.3208 0 0
-12.2717 0 0
-12.2717 0 0
-12.2226 0 0
-12.2226 0 0
-12.1735 0 0
-12.1735 0 0
-12.1244 0 0
-12.1244 0 0
-12.0754 0 0
-12.0754 0 0
-12.0263 0 0
-12.0263 0 0
-11.9772 0 0
-11.9772 0 0
-11.9281 0 0
-11.9281 0 0
-11.879 0 0
-11.879 0 0
-11.8299 0 0
-11.8299 0 0
-11.7808 0 0
-11.7808 0 0
-11.7317 0 0
-11.7317 0 0
-11.6827 0 0
-11.6827 0 0
-11.6336 0 0
-11.6336 0 0
-11.5845 0 0
-11.5845 0 0
-11.5354 0 0
-11.5354 0 0
-11.4863 0 0
-11.4863 0 0
-11.4372 0 0
-11.4372 0 0
-11.3881 0 0
-11.3881 0 0
-11.339 0 0
-11.339 0 0
-11.29 0 0
-11.29 0 0
-11.2409 0 0
-11.2409 0 0
-11.1918 0 0
-11.1918 0 0
-11.1427 0 0
-11.1427 0 0
-11.0936 0 0
-11.0936 0 0
-11.0445 0 0
-11.0445 0 0
-10.9954 0 0
-10.9954 0 0
-10.9463 0 0
-10.9463 0 0
-10.8973 0 0
-10.8973 0 0
-10.8482 0 0
-10.8482 0 0
-10.7991 0 0
-10.7991 0 0
-10.75 0 0
-10.75 0 0
-10.7009 0 0
-10.7009 0 0
-10.6518 0 0
-10.6518 0 0
-10.6027 0 0
-10.6027 0 0
-10.5536 0 0
-10.5536 0 0
-10.5046 0 0
-10.5046 0 0
-10.4555 0 0
-10.4555 0 0
-10.4064 0 0
-10.4064 0 0
-10.3573 0 0
-10.3573 0 0
-10.3082 0 0
-10.3082 0 0
-10.2591 0 0
-10.2591 0 0
-10.21 0 0
-10.21 0 0
-10.1609 0 0
-10.1609 0 0
-10.1119 0 0
-10.1119 0 0
-10.0628 0 0
-10.0628 0 0
-10.0137 0 0
-10.0137 0 0
-9.9646 0 0
-9.9646 0 0
-9.91551 0 0
-9.91551 0 0
-9.86643 0 0
-9.86643 0 0
-9.81734 0 0
-9.81734 0 0
-9.76825 0 0
-9.76825 0 0
-9.71916 0 0
-9.71916 0 0
-9.67008 0 0
-9.67008 0 0
-9.62099 0 0
-9.62099 0 0
-9.5719 0 0
-9.5719 0 0
-9.52281 0 0
-9.52281 0 0
-9.47373 0 0
-9.47373 0 0
-9.42464 0 0
-9.42464 0 0
-9.37555 0 0
-9.37555 0 0
-9.32646 0 0
-9.32646 0 0
-9.27738 0 0
-9.27738 0 0
-9.22829 0 0
-9.22829 0 0
-9.1792 0 0
-9.1792 0 0
-9.13011 0 0
-9.13011 0 0
-9.08103 0 0
-9.08103 0 0
-9.03194 0 0
-9.03194 0 0
-8.98285 0 0
-8.98285 0 0
-8.93377 0 0
-8.93377 0 0
-8.88468 0 0
-8.88468 0 0
-8.83559 0 0
-8.83559 0 0
-8.7865 0 0
-8.7865 0 0
-8.73742 0 0
-8.73742 0 0
-8.68833 0 0
-8.68833 0 0
-8.63924 0 0
-8.63924 0 0
-8.59015 0 0
-8.59015 0 0
-8.54107 0 0
-8.54107 0 0
-8.49198 0 0
-8.49198 0 0
-8.44289 0 0
-8.44289 0 0
-8.3938 0 0
-8.3938 0 0
-8.34472 0 0
-8.34472 0 0
-8.29563 0 0
-8.29563 0 0
-8.24654 0 0
-8.24654 0 0
-8.19745 0 0
-8.19745 0 0
-8.14837 0 0
-8.14837 0 0
-8.09928 0 0
-8.09928 0 0
-8.05019 0 0
-8.05019 0 0
-8.00111 0 0
-8.00111 0 0
-7.95202 0 0
-7.95202 0 0
-7.90293 0 0
-7.90293 0 0
-7.85384 0 0
-7.85384 0 0
-7.80476 0 0
-7.80476 0 0
-7.75567 0 0
-7.75567 0 0
-7.70658 0 0
-7.70658 0 0
-7.65749 0 0
-7.65749 0 0
-7.60841 0 0
-7.60841 0 0
-7.55932 0 0
-7.55932 0 0
-7.51023 0 0
-7.51023 0 0
-7.46114 0 0
-7.46114 0 0
-7.41206 0 0
-7.41206 0 0
-7.36297 0 0
-7.36297 0 0
-7.31388 0 0
-7.31388 0 0
-7.26479 0 0
-7.26479 0 0
-7.21571 0 0
-7.21571 0 0
-7.16662 0 0
-7.16662 0 0
-7.11753 0 0
-7.11753 0 0
-7.06844 0 0
-7.06844 0 0
-7.01936 0 0
-7.01936 0 0
-6.97027 0 0
-6.97027 0 0
-6.92118 0 0
-6.92118 0 0
-6.8721 0 0
-6.8721 0 0
-6.82301 0 0
-6.82301 0 0
-6.77392 0 0
-6.77392 0 0
-6.72483 0 0
-6.72483 0 0
-6.67575 0 0
-6.67575 0 0
-6.62666 0 0
-6.62666 0 0
-6.57757 0 0
-6.57757 0 0
-6.52848 0 0
-6.52848 0 0
-6.4794 0 0
-6.4794 0 0
-6.43031 0 0
-6.43031 0 0
-6.38122 0 0
-6.38122 0 0
-6.33213 0 0
-6.33213 0 0
-6.28305 0 0
-6.28305 0 0
-6.23396 0 0
-6.23396 0 0
-6.18487 0 0
-6.18487 0 0
-6.13578 0 0
-6.13578 0 0
-6.0867 0 0
-6.0867 0 0
-6.03761 0 0
-6.03761 0 0
-5.98852 0 0
-5.98852 0 0
-5.93944 0 0
-5.93944 0 0
-5.89035 0 0
-5.89035 0 0
-5.84126 0 0
-5.84126 0 0
-5.79217 0 0
-5.79217 0 0
-5.74309 0 0
-5.74309 0 0
-5.694 0 0
-5.694 0 0
-5.64491 0 0
-5.64491 0 0
-5.59582 0 0
-5.59582 0 0
-5.54674 0 0
-5.54674 0 0
-5.49765 0 0
-5.49765 0 0
-5.44856 0 0
-5.44856 0 0
-5.39947 0 0
-5.39947 0 0
-5.35039 0 0
-5.35039 0 0
-5.3013 0 0
-5.3013 0 0
-5.25221 0 0
-5.25221 0 0
-5.20312 0 0
-5.20312 0 0
-5.15404 0 0
-5.15404 0 0
-5.10495 0 0
-5.10495 0 0
-5.05586 0 0
-5.05586 0 0
-5.00677 0 0
-5.00677 0 0
-4.95769 0 0
-4.95769 0 0
-4.9086 0 0
-4.9086 0 0
-4.85951 0 0
-4.85951 0 0
-4.81042 0 0
-4.81042 0 0
-4.76134 0 0
-4.76134 0 0
-4.71225 0 0
-4.71225 0 0
-4.66316 0 0
-4.66316 0 0
-4.61408 0 0
-4.61408 0 0
-4.56499 0 0
-4.56499 0 0
-4.5159 0 0
-4.5159 0 0
-4.46681 0 0
-4.46681 0 0
-4.41773 0 0
-4.41773 0 0
-4.36864 0 0
-4.36864 0 0
-4.31955 0 0
-4.31955 0 0
-4.27046 0 0
-4.27046 0 0
-4.22138 0 0
-4.22138 0 0
-4.17229 0 0
-4.17229 0 0
-4.1232 0 0
-4.1232 0 0
-4.07411 0 0
-4.07411 0 0
-4.02503 0 0
-4.02503 0 0
-3.97594 0 0
-3.97594 0 0
-3.92685 0 0
-3.92685 0 0
-3.87776 0 0
-3.87776 0 0
-3.82868 0 0
-3.82868 0 0
-3.77959 0 0
-3.77959 0 0
-3.7305 0 0
-3.7305 0 0
-3.68142 0 0
-3.68142 0 0
-3.63233 0 0
-3.63233 0 0
-3.58324 0 0
-3.58324 0 0
-3.53415 0 0
-3.53415 0 0
-3.48507 0 0
-3.48507 0 0
-3.43598 0 0
-3.43598 0 0
-3.38689 0 0
-3.38689 0 0
-3.3378 0 0
-3.3378 0 0
-3.28872 0 0
-3.28872 0 0
-3.23963 0 0
-3.23963 0 0
-3.19054 0 0
-3.19054 0 0
-3.14145 0 0
-3.14145 0 0
-3.09237 0 0
-3.09237 0 0
-3.04328 0 0
-3.04328 0 0
-2.99419 0 0
-2.99419 0 0
-2.9451 0 0
-2.9451 0 0
-2.89602 0 0
-2.89602 0 0
-2.84693 0 0
-2.84693 0 0
-2.79784 0 0
-2.79784 0 0
-2.74875 0 0
-2.74875 0 0
-2.69967 0 0
-2.69967 0 0
-2.65058 0 0
-2.65058 0 0
-2.60149 0 0
-2.60149 0 0
-2.55241 0 0
-2.55241 0 0
-2.50332 0 0
-2.50332 0 0
-2.45423 0 0
-2.45423 0 0
-2.40514 0 0
-2.40514 0 0
-2.35606 0 0
-2.35606 0 0
-2.30697 0 0
-2.30697 0 0
-2.25788 0 0
-2.25788 0 0
-2.20879 0 0
-2.20879 0 0
-2.15971 0 0
-2.15971 0 0
-2.11062 0 0
-2.11062 0 0
-2.06153 0 0
-2.06153 0 0
-2.01244 0 0
-2.01244 0 0
-1.96336 0 0
-1.96336 0 0
-1.91427 0 0
-1.91427 0 0
-1.86518 0 0
-1.86518 0 0
-1.81609 0 0
-1.81609 0 0
-1.76701 0 0
-1.76701 0 0
-1.71792 0 0
-1.71792 0 0
-1.66883 0 0
-1.66883 0 0
-1.61974 0 0
-1.61974 0 0
-1.57066 0 0
-1.57066 0 0
-1.52157 0 0
-1.52157 0 0
-1.47248 0 0
-1.47248 0 0
-1.4234 0 0
-1.4234 0 0
-1.37431 0 0
-1.37431 0 0
-1.32522 0 0
-1.32522 0 0
-1.27613 0 0
-1.27613 0 0
-1.22705 0 0
-1.22705 0 0
-1.17796 0 0
-1.17796 0 0
-1.12887 0 0
-1.12887 0 0
-1.07978 0 0
-1.07978 0 0
-1.0307 0 0
-1.0307 0 0
-0.981609 0 0
-0.981609 0 0
-0.932522 0 0
-0.932522 0 0
-0.883434 0 0
-0.883434 0 0
-0.834347 0 0
-0.834347 0 0
-0.785259 0 0
-0.785259 0 0
-0.736172 0 0
-0.736172 0 0
-0.687085 0 0
-0.687085 0 0
-0.637997 0 0
-0.637997 0 0
-0.58891 0 0
-0.58891 0 0
-0.539822 0 0
-0.539822 0 0
-0.490735 0 0
-0.490735 0 0
-0.441648 0 0
-0.441648 0 0
-0.392562 0 0
-0.392562 0 0
-0.343475 0 0
-0.343475 0 0
-0.294388 0 0
-0.294388 0 0
-0.245306 0 0
-0.245318 0 0
-0.196297 0 0
-0.196285 0 0
-0.147206 0 0
-0.147207 0 0
-0.0981865 0 0
-0.0981748 0 0
-0.0490874 0 0
-0.0490874 0 0
-1.45519e-11 0 0
SCALARS potential double 1
LOOKUP_TABLE default
0 0.615639 0.615639 1.22887 1.22887 1.83969 1.83969 2.4481 2.4481 3.0541 3.0541 3.65769 3.65769 4.25887 4.25887 4.85764 4.85764 5.454 5.454 6.04796 6.04796 6.6395 6.6395 7.22863 7.22863 7.81536 7.81536 8.39967 8.39967 8.98158 8.98158 9.56107 9.56107 10.1382 10.1382 10.7128 10.7128 11.2851 11.2851 11.855 11.855 12.4224 12.4224 12.9874 12.9874 13.5501 13.5501 14.1103 14.1103 14.6681 14.6681 15.2235 15.2235 15.7765 15.7765 16.3271 16.3271 16.8752 16.8752 17.421 17.421 17.9643 17.9643 18.5053 18.5053 19.0438 19.0438 19.5799 19.5799 20.1137 20.1137 20.645 20.645 21.1739 21.1739 21.7003 21.7003 22.2244 22.2244 22.7461 22.7461 23.2653 23.2653 23.7822 23.7822 24.2966 24.2966 24.8086 24.8086 25.3183 25.3183 25.8255 25.8255 26.3303 26.3303 26.8327 26.8327 27.3326 27.3326 27.8302 27.8302 28.3254 28.3254 28.8181 28.8181 29.3085 29.3085 29.7964 29.7964 30.2819 30.2819 30.765 30.765 31.2457 31.2457 31.724 31.724 32.1999 32.1999 32.6734 32.6734 33.1444 33.1444 33.6131 33.6131 34.0793 34.0793 34.5432 34.5432 35.0046 35.0046 35.4636 35.4636 35.9202 35.9202 36.3744 36.3744 36.8262 36.8262 37.2756 37.2756 37.7226 37.7226 38.1671 38.1671 38.6093 38.6093 39.049 39.049 39.4863 39.4863 39.9213 39.9213 40.3538 40.3538 40.7839 40.7839 41.2116 41.2116 41.6368 41.6368 42.0597 42.0597 42.4802 42.4802 42.8982 42.8982 43.3139 43.3139 43.7271 43.7271 44.1379 44.1379 44.5464 44.5464 44.9524 44.9524 45.356 45.356 45.7571 45.7571 46.1559 46.1559 46.5523 46.5523 46.9463 46.9463 47.3378 47.3378 47.7269 47.7269 48.1137 48.1137 48.498 48.498 48.8799 48.8799 49.2594 49.2594 49.6365 49.6365 50.0112 50.0112 50.3834 50.3834 50.7533 50.7533 51.1208 51.1208 51.4858 51.4858 51.8484 51.8484 52.2087 52.2087 52.5665 52.5665 52.9219 52.9219 53.2749 53.2749 53.6255 53.6255 53.9736 53.9736 54.3194 54.3194 54.6628 54.6628 55.0037 55.0037 55.3422 55.3422 55.6784 55.6784 56.0121 56.0121 56.3434 56.3434 56.6723 56.6723 56.9988 56.9988 57.3229 57.3229 57.6445 57.6445 57.9638 57.9638 58.2807 58.2807 58.5951 58.5951 58.9071 58.9071 59.2168 59.2168 59.524 59.524 59.8288 59.8288 60.1312 60.1312 60.4312 60.4312 60.7287 60.7287 61.0239 61.0239 61.3166 61.3166 61.607 61.607 61.8949 61.8949 62.1805 62.1805 62.4636 62.4636 62.7443 62.7443 63.0226 63.0226 63.2985 63.2985 63.572 63.572 63.843 63.843 64.1117 64.1117 64.3779 64.3779 64.6418 64.6418 64.9032 64.9032 65.1622 65.1622 65.4188 65.4188 65.673 65.673 65.9248 65.9248 66.1742 66.1742 66.4212 66.4212 66.6658 66.6658 66.9079 66.9079 67.1477 67.1477 67.385 67.385 67.6199 67.6199 67.8524 67.8524 68.0826 68.0826 68.3102 68.3102 68.5355 68.5355 68.7584 68.7584 68.9789 68.9789 69.1969 69.1969 69.4126 69.4126 69.6258 69.6258 69.8367 69.8367 70.0451 70.0451 70.2511 70.2511 70.4547 70.4547 70.6559 70.6559 70.8547 70.8547 71.051 71.051 71.245 71.245 71.4366 71.4366 71.6257 71.6257 71.8124 71.8124 71.9968 71.9968 72.1787 72.1787 72.3582 72.3582 72.5353 72.5353 72.71 72.71 72.8822 72.8822 73.0521 73.0521 73.2196 73.2196 73.3846 73.3846 73.5473 73.5473 73.7075 73.7075 73.8653 73.8653 74.0207 74.0207 74.1737 74.1737 74.3243 74.3243 74.4725 74.4725 74.6183 74.6183 74.7616 74.7616 74.9026 74.9026 75.0411 75.0411 75.1773 75.1773 75.311 75.311 75.4423 75.4423 75.5712 75.5712 75.6977 75.6977 75.8218 75.8218 75.9435 75.9435 76.0627 76.0627 76.1796 76.1796 76.294 76.294 76.4061 76.4061 76.5157 76.5157 76.6229 76.6229 76.7277 76.7277 76.8301 76.8301 76.9301 76.9301 77.0277 77.0277 77.1229 77.1229 77.2156 77.2156 77.306 77.306 77.3939 77.3939 77.4795 77.4795 77.5626 77.5626 77.6433 77.6433 77.7216 77.7216 77.7975 77.7975 77.871 77.871 77.9421 77.9421 78.0107 78.0107 78.077 78.077 78.1408 78.1408 78.2023 78.2023 78.2613 78.2613 78.3179 78.3179 78.3721 78.3721 78.4239 78.4239 78.4733 78.4733 78.5203 78.5203 78.5649 78.5649 78.607 78.607 78.6468 78.6468 78.6841 78.6841 78.719 78.719 78.7516 78.7516 78.7817 78.7817 78.8094 78.8094 78.8347 78.8347 78.8576 78.8576 78.878 78.878 78.8961 78.8961 78.9118 78.9118 78.925 78.925 78.9358 78.9358 78.9443 78.9443 78.9503 78.9503 78.9539 78.9539 78.9551 
SCALARS x_coordinate double 1
LOOKUP_TABLE default
0 0.0490874 0.0490874 0.0981748 0.0981748 0.147262 0.147262 0.19635 0.19635 0.245437 0.245437 0.294524 0.294524 0.343612 0.343612 0.392699 0.392699 0.441786 0.441786 0.490874 0.490874 0.539961 0.539961 0.589049 0.589049 0.638136 0.638136 0.687223 0.687223 0.736311 0.736311 0.785398 0.785398 0.834486 0.834486 0.883573 0.883573 0.93266 0.93266 0.981748 0.981748 1.03084 1.03084 1.07992 1.07992 1.12901 1.12901 1.1781 1.1781 1.22718 1.22718 1.27627 1.27627 1.32536 1.32536 1.37445 1.37445 1.42353 1.42353 1.47262 1.47262 1.52171 1.52171 1.5708 1.5708 1.61988 1.61988 1.66897 1.66897 1.71806 1.71806 1.76715 1.76715 1.81623 1.81623 1.86532 1.86532 1.91441 1.91441 1.9635 1.9635 2.01258 2.01258 2.06167 2.06167 2.11076 2.11076 2.15984 2.15984 2.20893 2.20893 2.25802 2.25802 2.30711 2.30711 2.35619 2.35619 2.40528 2.40528 2.45437 2.45437 2.50346 2.50346 2.55254 2.55254 2.60163 2.60163 2.65072 2.65072 2.69981 2.69981 2.74889 2.74889 2.79798 2.79798 2.84707 2.84707 2.89616 2.89616 2.94524 2.94524 2.99433 2.99433 3.04342 3.04342 3.09251 3.09251 3.14159 3.14159 3.19068 3.19068 3.23977 3.23977 3.28885 3.28885 3.33794 3.33794 3.38703 3.38703 3.43612 3.43612 3.4852 3.4852 3.53429 3.53429 3.58338 3.58338 3.63247 3.63247 3.68155 3.68155 3.73064 3.73064 3.77973 3.77973 3.82882 3.82882 3.8779 3.8779 3.92699 3.92699 3.97608 3.97608 4.02517 4.02517 4.07425 4.07425 4.12334 4.12334 4.17243 4.17243 4.22152 4.22152 4.2706 4.2706 4.31969 4.31969 4.36878 4.36878 4.41786 4.41786 4.46695 4.46695 4.51604 4.51604 4.56513 4.56513 4.61421 4.61421 4.6633 4.6633 4.71239 4.71239 4.76148 4.76148 4.81056 4.81056 4.85965 4.85965 4.90874 4.90874 4.95783 4.95783 5.00691 5.00691 5.056 5.056 5.10509 5.10509 5.15418 5.15418 5.20326 5.20326 5.25235 5.25235 5.30144 5.30144 5.35052 5.35052 5.39961 5.39961 5.4487 5.4487 5.49779 5.49779 5.54687 5.54687 5.59596 5.59596 5.64505 5.64505 5.69414 5.69414 5.74322 5.74322 5.79231 5.79231 5.8414 5.8414 5.89049 5.89049 5.93957 5.93957 5.98866 5.98866 6.03775 6.03775 6.08684 6.08684 6.13592 6.13592 6.18501 6.18501 6.2341 6.2341 6.28319 6.28319 6.33227 6.33227 6.38136 6.38136 6.43045 6.43045 6.47953 6.47953 6.52862 6.52862 6.57771 6.57771 6.6268 6.6268 6.67588 6.67588 6.72497 6.72497 6.77406 6.77406 6.82315 6.82315 6.87223 6.87223 6.92132 6.92132 6.97041 6.97041 7.0195 7.0195 7.06858 7.06858 7.11767 7.11767 7.16676 7.16676 7.21585 7.21585 7.26493 7.26493 7.31402 7.31402 7.36311 7.36311 7.4122 7.4122 7.46128 7.46128 7.51037 7.51037 7.55946 7.55946 7.60854 7.60854 7.65763 7.65763 7.70672 7.70672 7.75581 7.75581 7.80489 7.80489 7.85398 7.85398 7.90307 7.90307 7.95216 7.95216 8.00124 8.00124 8.05033 8.05033 8.09942 8.09942 8.14851 8.14851 8.19759 8.19759 8.24668 8.24668 8.29577 8.29577 8.34486 8.34486 8.39394 8.39394 8.44303 8.44303 8.49212 8.49212 8.54121 8.54121 8.59029 8.59029 8.63938 8.63938 8.68847 8.68847 8.73755 8.73755 8.78664 8.78664 8.83573 8.83573 8.88482 8.88482 8.9339 8.9339 8.98299 8.98299 9.03208 9.03208 9.08117 9.08117 9.13025 9.13025 9.17934 9.17934 9.22843 9.22843 9.27752 9.27752 9.3266 9.3266 9.37569 9.37569 9.42478 9.42478 9.47387 9.47387 9.52295 9.52295 9.57204 9.57204 9.62113 9.62113 9.67021 9.67021 9.7193 9.7193 9.76839 9.76839 9.81748 9.81748 9.86656 9.86656 9.91565 9.91565 9.96474 9.96474 10.0138 10.0138 10.0629 10.0629 10.112 10.112 10.1611 10.1611 10.2102 10.2102 10.2593 10.2593 10.3084 10.3084 10.3574 10.3574 10.4065 10.4065 10.4556 10.4556 10.5047 10.5047 10.5538 10.5538 10.6029 10.6029 10.652 10.652 10.701 10.701 10.7501 10.7501 10.7992 10.7992 10.8483 10.8483 10.8974 10.8974 10.9465 10.9465 10.9956 10.9956 11.0447 11.0447 11.0937 11.0937 11.1428 11.1428 11.1919 11.1919 11.241 11.241 11.2901 11.2901 11.3392 11.3392 11.3883 11.3883 11.4374 11.4374 11.4864 11.4864 11.5355 11.5355 11.5846 11.5846 11.6337 11.6337 11.6828 11.6828 11.7319 11.7319 11.781 11.781 11.8301 11.8301 11.8791 11.8791 11.9282 11.9282 11.9773 11.9773 12.0264 12.0264 12.0755 12.0755 12.1246 12.1246 12.1737 12.1737 12.2228 12.2228 12.2718 12.2718 12.3209 12.3209 12.37 12.37 12.4191 12.4191 12.4682 12.4682 12.5173 12.5173 12.5664 
