# vtk DataFile Version 3.0
#This file was generated by the deal.II library on 2026/3/10 at 19:07:34
ASCII
DATASET UNSTRUCTURED_GRID

POINTS 512 double
0 0 0
0.0490874 0 0
0.0490874 0 0
0.0981748 0 0
0.0981748 0 0
0.147262 0 0
0.147262 0 0
0.19635 0 0
0.19635 0 0
0.245437 0 0
0.245437 0 0
0.294524 0 0
0.294524 0 0
0.343612 0 0
0.343612 0 0
0.392699 0 0
0.392699 0 0
0.441786 0 0
0.441786 0 0
0.490874 0 0
0.490874 0 0
0.539961 0 0
0.539961 0 0
0.589049 0 0
0.589049 0 0
0.638136 0 0
0.638136 0 0
0.687223 0 0
0.687223 0 0
0.736311 0 0
0.736311 0 0
0.785398 0 0
0.785398 0 0
0.834486 0 0
0.834486 0 0
0.883573 0 0
0.883573 0 0
0.93266 0 0
0.93266 0 0
0.981748 0 0
0.981748 0 0
1.03084 0 0
1.03084 0 0
1.07992 0 0
1.07992 0 0
1.12901 0 0
1.12901 0 0
1.1781 0 0
1.1781 0 0
1.22718 0 0
1.22718 0 0
1.27627 0 0
1.27627 0 0
1.32536 0 0
1.32536 0 0
1.37445 0 0
1.37445 0 0
1.42353 0 0
1.42353 0 0
1.47262 0 0
1.47262 0 0
1.52171 0 0
1.52171 0 0
1.5708 0 0
1.5708 0 0
1.61988 0 0
1.61988 0 0
1.66897 0 0
1.66897 0 0
1.71806 0 0
1.71806 0 0
1.76715 0 0
1.76715 0 0
1.81623 0 0
1.81623 0 0
1.86532 0 0
1.86532 0 0
1.91441 0 0
1.91441 0 0
1.9635 0 0
1.9635 0 0
2.01258 0 0
2.01258 0 0
2.06167 0 0
2.06167 0 0
2.11076 0 0
2.11076 0 0
2.15984 0 0
2.15984 0 0
2.20893 0 0
2.20893 0 0
2.25802 0 0
2.25802 0 0
2.30711 0 0
2.30711 0 0
2.35619 0 0
2.35619 0 0
2.40528 0 0
2.40528 0 0
2.45437 0 0
2.45437 0 0
2.50346 0 0
2.50346 0 0
2.55254 0 0
2.55254 0 0
2.60163 0 0
2.60163 0 0
2.65072 0 0
2.65072 0 0
2.69981 0 0
2.69981 0 0
2.74889 0 0
2.74889 0 0
2.79798 0 0
2.79798 0 0
2.84707 0 0
2.84707 0 0
2.89616 0 0
2.89616 0 0
2.94524 0 0
2.94524 0 0
2.99433 0 0
2.99433 0 0
3.04342 0 0
3.04342 0 0
3.09251 0 0
3.09251 0 0
3.14159 0 0
3.14159 0 0
3.19068 0 0
3.19068 0 0
3.23977 0 0
3.23977 0 0
3.28885 0 0
3.28885 0 0
3.33794 0 0
3.33794 0 0
3.38703 0 0
3.38703 0 0
3.43612 0 0
3.43612 0 0
3.4852 0 0
3.4852 0 0
3.53429 0 0
3.53429 0 0
3.58338 0 0
3.58338 0 0
3.63247 0 0
3.63247 0 0
3.68155 0 0
3.68155 0 0
3.73064 0 0
3.73064 0 0
3.77973 0 0
3.77973 0 0
3.82882 0 0
3.82882 0 0
3.8779 0 0
3.8779 0 0
3.92699 0 0
3.92699 0 0
3.97608 0 0
3.97608 0 0
4.02517 0 0
4.02517 0 0
4.07425 0 0
4.07425 0 0
4.12334 0 0
4.12334 0 0
4.17243 0 0
4.17243 0 0
4.22152 0 0
4.22152 0 0
4.2706 0 0
4.2706 0 0
4.31969 0 0
4.31969 0 0
4.36878 0 0
4.36878 0 0
4.41786 0 0
4.41786 0 0
4.46695 0 0
4.46695 0 0
4.51604 0 0
4.51604 0 0
4.56513 0 0
4.56513 0 0
4.61421 0 0
4.61421 0 0
4.6633 0 0
4.6633 0 0
4.71239 0 0
4.71239 0 0
4.76148 0 0
4.76148 0 0
4.81056 0 0
4.81056 0 0
4.85965 0 0
4.85965 0 0
4.90874 0 0
4.90874 0 0
4.95783 0 0
4.95783 0 0
5.00691 0 0
5.00691 0 0
5.056 0 0
5.056 0 0
5.10509 0 0
5.10509 0 0
5.15418 0 0
5.15418 0 0
5.20326 0 0
5.20326 0 0
5.25235 0 0
5.25235 0 0
5.30144 0 0
5.30144 0 0
5.35052 0 0
5.35052 0 0
5.39961 0 0
5.39961 0 0
5.4487 0 0
5.4487 0 0
5.49779 0 0
5.49779 0 0
5.54687 0 0
5.54687 0 0
5.59596 0 0
5.59596 0 0
5.64505 0 0
5.64505 0 0
5.69414 0 0
5.69414 0 0
5.74322 0 0
5.74322 0 0
5.79231 0 0
5.79231 0 0
5.8414 0 0
5.8414 0 0
5.89049 0 0
5.89049 0 0
5.93957 0 0
5.93957 0 0
5.98866 0 0
5.98866 0 0
6.03775 0 0
6.03775 0 0
6.08684 0 0
6.08684 0 0
6.13592 0 0
6.13592 0 0
6.18501 0 0
6.18501 0 0
6.2341 0 0
6.2341 0 0
6.28319 0 0
6.28319 0 0
6.33227 0 0
6.33227 0 0
6.38136 0 0
6.38136 0 0
6.43045 0 0
6.43045 0 0
6.47953 0 0
6.47953 0 0
6.52862 0 0
6.52862 0 0
6.57771 0 0
6.57771 0 0
6.6268 0 0
6.6268 0 0
6.67588 0 0
6.67588 0 0
6.72497 0 0
6.72497 0 0
6.77406 0 0
6.77406 0 0
6.82315 0 0
6.82315 0 0
6.87223 0 0
6.87223 0 0
6.92132 0 0
6.92132 0 0
6.97041 0 0
6.97041 0 0
7.0195 0 0
7.0195 0 0
7.06858 0 0
7.06858 0 0
7.11767 0 0
7.11767 0 0
7.16676 0 0
7.16676 0 0
7.21585 0 0
7.21585 0 0
7.26493 0 0
7.26493 0 0
7.31402 0 0
7.31402 0 0
7.36311 0 0
7.36311 0 0
7.4122 0 0
7.4122 0 0
7.46128 0 0
7.46128 0 0
7.51037 0 0
7.51037 0 0
7.55946 0 0
7.55946 0 0
7.60854 0 0
7.60854 0 0
7.65763 0 0
7.65763 0 0
7.70672 0 0
7.70672 0 0
7.75581 0 0
7.75581 0 0
7.80489 0 0
7.80489 0 0
7.85398 0 0
7.85398 0 0
7.90307 0 0
7.90307 0 0
7.95216 0 0
7.95216 0 0
8.00124 0 0
8.00124 0 0
8.05033 0 0
8.05033 0 0
8.09942 0 0
8.09942 0 0
8.14851 0 0
8.14851 0 0
8.19759 0 0
8.19759 0 0
8.24668 0 0
8.24668 0 0
8.29577 0 0
8.29577 0 0
8.34486 0 0
8.34486 0 0
8.39394 0 0
8.39394 0 0
8.44303 0 0
8.44303 0 0
8.49212 0 0
8.49212 0 0
8.54121 0 0
8.54121 0 0
8.59029 0 0
8.59029 0 0
8.63938 0 0
8.63938 0 0
8.68847 0 0
8.68847 0 0
8.73755 0 0
8.73755 0 0
8.78664 0 0
8.78664 0 0
8.83573 0 0
8.83573 0 0
8.88482 0 0
8.88482 0 0
8.9339 0 0
8.9339 0 0
8.98299 0 0
8.98299 0 0
9.03208 0 0
9.03208 0 0
9.08117 0 0
9.08117 0 0
9.13025 0 0
9.13025 0 0
9.17934 0 0
9.17934 0 0
9.22843 0 0
9.22843 0 0
9.27752 0 0
9.27752 0 0
9.3266 0 0
9.3266 0 0
9.37569 0 0
9.37569 0 0
9.42478 0 0
9.42478 0 0
9.47387 0 0
9.47387 0 0
9.52295 0 0
9.52295 0 0
9.57204 0 0
9.57204 0 0
9.62113 0 0
9.62113 0 0
9.67021 0 0
9.67021 0 0
9.7193 0 0
9.7193 0 0
9.76839 0 0
9.76839 0 0
9.81748 0 0
9.81748 0 0
9.86656 0 0
9.86656 0 0
9.91565 0 0
9.91565 0 0
9.96474 0 0
9.96474 0 0
10.0138 0 0
10.0138 0 0
10.0629 0 0
10.0629 0 0
10.112 0 0
10.112 0 0
10.1611 0 0
10.1611 0 0
10.2102 0 0
10.2102 0 0
10.2593 0 0
10.2593 0 0
10.3084 0 0
10.3084 0 0
10.3574 0 0
10.3574 0 0
10.4065 0 0
10.4065 0 0
10.4556 0 0
10.4556 0 0
10.5047 0 0
10.5047 0 0
10.5538 0 0
10.5538 0 0
10.6029 0 0
10.6029 0 0
10.652 0 0
10.652 0 0
10.701 0 0
10.701 0 0
10.7501 0 0
10.7501 0 0
10.7992 0 0
10.7992 0 0
10.8483 0 0
10.8483 0 0
10.8974 0 0
10.8974 0 0
10.9465 0 0
10.9465 0 0
10.9956 0 0
10.9956 0 0
11.0447 0 0
11.0447 0 0
11.0937 0 0
11.0937 0 0
11.1428 0 0
11.1428 0 0
11.1919 0 0
11.1919 0 0
11.241 0 0
11.241 0 0
11.2901 0 0
11.2901 0 0
11.3392 0 0
11.3392 0 0
11.3883 0 0
11.3883 0 0
11.4374 0 0
11.4374 0 0
11.4864 0 0
11.4864 0 0
11.5355 0 0
11.5355 0 0
11.5846 0 0
11.5846 0 0
11.6337 0 0
11.6337 0 0
11.6828 0 0
11.6828 0 0
11.7319 0 0
11.7319 0 0
11.781 0 0
11.781 0 0
11.8301 0 0
11.8301 0 0
11.8791 0 0
11.8791 0 0
11.9282 0 0
11.9282 0 0
11.9773 0 0
11.9773 0 0
12.0264 0 0
12.0264 0 0
12.0755 0 0
12.0755 0 0
12.1246 0 0
12.1246 0 0
12.1737 0 0
12.1737 0 0
12.2228 0 0
12.2228 0 0
12.2718 0 0
12.2718 0 0
12.3209 0 0
12.3209 0 0
12.37 0 0
12.37 0 0
12.4191 0 0
12.4191 0 0
12.4682 0 0
12.4682 0 0
12.5173 0 0
12.5173 0 0
12.5664 0 0

CELLS 256 768
2	0	1
2	2	3
2	4	5
2	6	7
2	8	9
2	10	11
2	12	13
2	14	15
2	16	17
2	18	19
2	20	21
2	22	23
2	24	25
2	26	27
2	28	29
2	30	31
2	32	33
2	34	35
2	36	37
2	38	39
2	40	41
2	42	43
2	44	45
2	46	47
2	48	49
2	50	51
2	52	53
2	54	55
2	56	57
2	58	59
2	60	61
2	62	63
2	64	65
2	66	67
2	68	69
2	70	71
2	72	73
2	74	75
2	76	77
2	78	79
2	80	81
2	82	83
2	84	85
2	86	87
2	88	89
2	90	91
2	92	93
2	94	95
2	96	97
2	98	99
2	100	101
2	102	103
2	104	105
2	106	107
2	108	109
2	110	111
2	112	113
2	114	115
2	116	117
2	118	119
2	120	121
2	122	123
2	124	125
2	126	127
2	128	129
2	130	131
2	132	133
2	134	135
2	136	137
2	138	139
2	140	141
2	142	143
2	144	145
2	146	147
2	148	149
2	150	151
2	152	153
2	154	155
2	156	157
2	158	159
2	160	161
2	162	163
2	164	165
2	166	167
2	168	169
2	170	171
2	172	173
2	174	175
2	176	177
2	178	179
2	180	181
2	182	183
2	184	185
2	186	187
2	188	189
2	190	191
2	192	193
2	194	195
2	196	197
2	198	199
2	200	201
2	202	203
2	204	205
2	206	207
2	208	209
2	210	211
2	212	213
2	214	215
2	216	217
2	218	219
2	220	221
2	222	223
2	224	225
2	226	227
2	228	229
2	230	231
2	232	233
2	234	235
2	236	237
2	238	239
2	240	241
2	242	243
2	244	245
2	246	247
2	248	249
2	250	251
2	252	253
2	254	255
2	256	257
2	258	259
2	260	261
2	262	263
2	264	265
2	266	267
2	268	269
2	270	271
2	272	273
2	274	275
2	276	277
2	278	279
2	280	281
2	282	283
2	284	285
2	286	287
2	288	289
2	290	291
2	292	293
2	294	295
2	296	297
2	298	299
2	300	301
2	302	303
2	304	305
2	306	307
2	308	309
2	310	311
2	312	313
2	314	315
2	316	317
2	318	319
2	320	321
2	322	323
2	324	325
2	326	327
2	328	329
2	330	331
2	332	333
2	334	335
2	336	337
2	338	339
2	340	341
2	342	343
2	344	345
2	346	347
2	348	349
2	350	351
2	352	353
2	354	355
2	356	357
2	358	359
2	360	361
2	362	363
2	364	365
2	366	367
2	368	369
2	370	371
2	372	373
2	374	375
2	376	377
2	378	379
2	380	381
2	382	383
2	384	385
2	386	387
2	388	389
2	390	391
2	392	393
2	394	395
2	396	397
2	398	399
2	400	401
2	402	403
2	404	405
2	406	407
2	408	409
2	410	411
2	412	413
2	414	415
2	416	417
2	418	419
2	420	421
2	422	423
2	424	425
2	426	427
2	428	429
2	430	431
2	432	433
2	434	435
2	436	437
2	438	439
2	440	441
2	442	443
2	444	445
2	446	447
2	448	449
2	450	451
2	452	453
2	454	455
2	456	457
2	458	459
2	460	461
2	462	463
2	464	465
2	466	467
2	468	469
2	470	471
2	472	473
2	474	475
2	476	477
2	478	479
2	480	481
2	482	483
2	484	485
2	486	487
2	488	489
2	490	491
2	492	493
2	494	495
2	496	497
2	498	499
2	500	501
2	502	503
2	504	505
2	506	507
2	508	509
2	510	511

CELL_TYPES 256
 3 3 3 3 3 3 3 3 3 3 3 3 3 3 3 3 3 3 3 3 3 3 3 3 3 3 3 3 3 3 3 3 3 3 3 3 3 3 3 3 3 3 3 3 3 3 3 3 3 3 3 3 3 3 3 3 3 3 3 3 3 3 3 3 3 3 3 3 3 3 3 3 3 3 3 3 3 3 3 3 3 3 3 3 3 3 3 3 3 3 3 3 3 3 3 3 3 3 3 3 3 3 3 3 3 3 3 3 3 3 3 3 3 3 3 3 3 3 3 3 3 3 3 3 3 3 3 3 3 3 3 3 3 3 3 3 3 3 3 3 3 3 3 3 3 3 3 3 3 3 3 3 3 3 3 3 3 3 3 3 3 3 3 3 3 3 3 3 3 3 3 3 3 3 3 3 3 3 3 3 3 3 3 3 3 3 3 3 3 3 3 3 3 3 3 3 3 3 3 3 3 3 3 3 3 3 3 3 3 3 3 3 3 3 3 3 3 3 3 3 3 3 3 3 3 3 3 3 3 3 3 3 3 3 3 3 3 3 3 3 3 3 3 3 3 3 3 3 3 3 3 3 3 3 3 3
POINT_DATA 512
VECTORS electric_field double
-12.5656 0 0
-12.5165 0 0
-12.5165 0 0
-12.4674 0 0
-12.4674 0 0
-12.4184 0 0
-12.4184 0 0
-12.3693 0 0
-12.3693 0 0
-12.3202 0 0
-12.3202 0 0
-12.2711 0 0
-12.2711 0 0
-12.222 0 0
-12.222 0 0
-12.1729 0 0
-12.1729 0 0
-12.1238 0 0
-12.1238 0 0
-12.0747 0 0
-12.0747 0 0
-12.0257 0 0
-12.0257 0 0
-11.9766 0 0
-11.9766 0 0
-11.9275 0 0
-11.9275 0 0
-11.8784 0 0
-11.8784 0 0
-11.8293 0 0
-11.8293 0 0
-11.7802 0 0
-11.7802 0 0
-11.7311 0 0
-11.7311 0 0
-11.682 0 0
-11.682 0 0
-11.633 0 0
-11.633 0 0
-11.5839 0 0
-11.5839 0 0
-11.5348 0 0
-11.5348 0 0
-11.4857 0 0
-11.4857 0 0
-11.4366 0 0
-11.4366 0 0
-11.3875 0 0
-11.3875 0 0
-11.3384 0 0
-11.3384 0 0
-11.2893 0 0
-11.2893 0 0
-11.2403 0 0
-11.2403 0 0
-11.1912 0 0
-11.1912 0 0
-11.1421 0 0
-11.1421 0 0
-11.093 0 0
-11.093 0 0
-11.0439 0 0
-11.0439 0 0
-10.9948 0 0
-10.9948 0 0
-10.9457 0 0
-10.9457 0 0
-10.8966 0 0
-10.8966 0 0
-10.8476 0 0
-10.8476 0 0
-10.7985 0 0
-10.7985 0 0
-10.7494 0 0
-10.7494 0 0
-10.7003 0 0
-10.7003 0 0
-10.6512 0 0
-10.6512 0 0
-10.6021 0 0
-10.6021 0 0
-10.553 0 0
-10.553 0 0
-10.5039 0 0
-10.5039 0 0
-10.4549 0 0
-10.4549 0 0
-10.4058 0 0
-10.4058 0 0
-10.3567 0 0
-10.3567 0 0
-10.3076 0 0
-10.3076 0 0
-10.2585 0 0
-10.2585 0 0
-10.2094 0 0
-10.2094 0 0
-10.1603 0 0
-10.1603 0 0
-10.1112 0 0
-10.1112 0 0
-10.0622 0 0
-10.0622 0 0
-10.0131 0 0
-10.0131 0 0
-9.96398 0 0
-9.96398 0 0
-9.9149 0 0
-9.9149 0 0
-9.86581 0 0
-9.86581 0 0
-9.81672 0 0
-9.81672 0 0
-9.76764 0 0
-9.76764 0 0
-9.71855 0 0
-9.71855 0 0
-9.66946 0 0
-9.66946 0 0
-9.62037 0 0
-9.62037 0 0
-9.57129 0 0
-9.57129 0 0
-9.5222 0 0
-9.5222 0 0
-9.47311 0 0
-9.47311 0 0
-9.42402 0 0
-9.42402 0 0
-9.37494 0 0
-9.37494 0 0
-9.32585 0 0
-9.32585 0 0
-9.27676 0 0
-9.27676 0 0
-9.22767 0 0
-9.22767 0 0
-9.17859 0 0
-9.17859 0 0
-9.1295 0 0
-9.1295 0 0
-9.08041 0 0
-9.08041 0 0
-9.03132 0 0
-9.03132 0 0
-8.98224 0 0
-8.98224 0 0
-8.93315 0 0
-8.93315 0 0
-8.88406 0 0
-8.88406 0 0
-8.83498 0 0
-8.83498 0 0
-8.78589 0 0
-8.78589 0 0
-8.7368 0 0
-8.7368 0 0
-8.68771 0 0
-8.68771 0 0
-8.63863 0 0
-8.63863 0 0
-8.58954 0 0
-8.58954 0 0
-8.54045 0 0
-8.54045 0 0
-8.49136 0 0
-8.49136 0 0
-8.44228 0 0
-8.44228 0 0
-8.39319 0 0
-8.39319 0 0
-8.3441 0 0
-8.3441 0 0
-8.29501 0 0
-8.29501 0 0
-8.24593 0 0
-8.24593 0 0
-8.19684 0 0
-8.19684 0 0
-8.14775 0 0
-8.14775 0 0
-8.09866 0 0
-8.09866 0 0
-8.04958 0 0
-8.04958 0 0
-8.00049 0 0
-8.00049 0 0
-7.9514 0 0
-7.9514 0 0
-7.90231 0 0
-7.90231 0 0
-7.85323 0 0
-7.85323 0 0
-7.80414 0 0
-7.80414 0 0
-7.75505 0 0
-7.75505 0 0
-7.70597 0 0
-7.70597 0 0
-7.65688 0 0
-7.65688 0 0
-7.60779 0 0
-7.60779 0 0
-7.5587 0 0
-7.5587 0 0
-7.50962 0 0
-7.50962 0 0
-7.46053 0 0
-7.46053 0 0
-7.41144 0 0
-7.41144 0 0
-7.36235 0 0
-7.36235 0 0
-7.31327 0 0
-7.31327 0 0
-7.26418 0 0
-7.26418 0 0
-7.21509 0 0
-7.21509 0 0
-7.166 0 0
-7.166 0 0
-7.11692 0 0
-7.11692 0 0
-7.06783 0 0
-7.06783 0 0
-7.01874 0 0
-7.01874 0 0
-6.96965 0 0
-6.96965 0 0
-6.92057 0 0
-6.92057 0 0
-6.87148 0 0
-6.87148 0 0
-6.82239 0 0
-6.82239 0 0
-6.7733 0 0
-6.7733 0 0
-6.72422 0 0
-6.72422 0 0
-6.67513 0 0
-6.67513 0 0
-6.62604 0 0
-6.62604 0 0
-6.57696 0 0
-6.57696 0 0
-6.52787 0 0
-6.52787 0 0
-6.47878 0 0
-6.47878 0 0
-6.42969 0 0
-6.42969 0 0
-6.38061 0 0
-6.38061 0 0
-6.33152 0 0
-6.33152 0 0
-6.28243 0 0
-6.28243 0 0
-6.23334 0 0
-6.23334 0 0
-6.18426 0 0
-6.18426 0 0
-6.13517 0 0
-6.13517 0 0
-6.08608 0 0
-6.08608 0 0
-6.03699 0 0
-6.03699 0 0
-5.98791 0 0
-5.98791 0 0
-5.93882 0 0
-5.93882 0 0
-5.88973 0 0
-5.88973 0 0
-5.84064 0 0
-5.84064 0 0
-5.79156 0 0
-5.79156 0 0
-5.74247 0 0
-5.74247 0 0
-5.69338 0 0
-5.69338 0 0
-5.64429 0 0
-5.64429 0 0
-5.59521 0 0
-5.59521 0 0
-5.54612 0 0
-5.54612 0 0
-5.49703 0 0
-5.49703 0 0
-5.44795 0 0
-5.44795 0 0
-5.39886 0 0
-5.39886 0 0
-5.34977 0 0
-5.34977 0 0
-5.30068 0 0
-5.30068 0 0
-5.2516 0 0
-5.2516 0 0
-5.20251 0 0
-5.20251 0 0
-5.15342 0 0
-5.15342 0 0
-5.10433 0 0
-5.10433 0 0
-5.05525 0 0
-5.05525 0 0
-5.00616 0 0
-5.00616 0 0
-4.95707 0 0
-4.95707 0 0
-4.90798 0 0
-4.90798 0 0
-4.8589 0 0
-4.8589 0 0
-4.80981 0 0
-4.80981 0 0
-4.76072 0 0
-4.76072 0 0
-4.71163 0 0
-4.71163 0 0
-4.66255 0 0
-4.66255 0 0
-4.61346 0 0
-4.61346 0 0
-4.56437 0 0
-4.56437 0 0
-4.51529 0 0
-4.51529 0 0
-4.4662 0 0
-4.4662 0 0
-4.41711 0 0
-4.41711 0 0
-4.36802 0 0
-4.36802 0 0
-4.31894 0 0
-4.31894 0 0
-4.26985 0 0
-4.26985 0 0
-4.22076 0 0
-4.22076 0 0
-4.17167 0 0
-4.17167 0 0
-4.12259 0 0
-4.12259 0 0
-4.0735 0 0
-4.0735 0 0
-4.02441 0 0
-4.02441 0 0
-3.97532 0 0
-3.97532 0 0
-3.92624 0 0
-3.92624 0 0
-3.87715 0 0
-3.87715 0 0
-3.82806 0 0
-3.82806 0 0
-3.77897 0 0
-3.77897 0 0
-3.72989 0 0
-3.72989 0 0
-3.6808 0 0
-3.6808 0 0
-3.63171 0 0
-3.63171 0 0
-3.58262 0 0
-3.58262 0 0
-3.53354 0 0
-3.53354 0 0
-3.48445 0 0
-3.48445 0 0
-3.43536 0 0
-3.43536 0 0
-3.38628 0 0
-3.38628 0 0
-3.33719 0 0
-3.33719 0 0
-3.2881 0 0
-3.2881 0 0
-3.23901 0 0
-3.23901 0 0
-3.18993 0 0
-3.18993 0 0
-3.14084 0 0
-3.14084 0 0
-3.09175 0 0
-3.09175 0 0
-3.04266 0 0
-3.04266 0 0
-2.99358 0 0
-2.99358 0 0
-2.94449 0 0
-2.94449 0 0
-2.8954 0 0
-2.8954 0 0
-2.84631 0 0
-2.84631 0 0
-2.79723 0 0
-2.79723 0 0
-2.74814 0 0
-2.74814 0 0
-2.69905 0 0
-2.69905 0 0
-2.64996 0 0
-2.64996 0 0
-2.60088 0 0
-2.60088 0 0
-2.55179 0 0
-2.55179 0 0
-2.5027 0 0
-2.5027 0 0
-2.45361 0 0
-2.45361 0 0
-2.40453 0 0
-2.40453 0 0
-2.35544 0 0
-2.35544 0 0
-2.30635 0 0
-2.30635 0 0
-2.25727 0 0
-2.25727 0 0
-2.20818 0 0
-2.20818 0 0
-2.15909 0 0
-2.15909 0 0
-2.11 0 0
-2.11 0 0
-2.06092 0 0
-2.06092 0 0
-2.01183 0 0
-2.01183 0 0
-1.96274 0 0
-1.96274 0 0
-1.91365 0 0
-1.91365 0 0
-1.86457 0 0
-1.86457 0 0
-1.81548 0 0
-1.81548 0 0
-1.76639 0 0
-1.76639 0 0
-1.7173 0 0
-1.7173 0 0
-1.66823 0 0
-1.66822 0 0
-1.61916 0 0
-1.61917 0 0
-1.5701 0 0
-1.5701 0 0
-1.52101 0 0
-1.52101 0 0
-1.47193 0 0
-1.47193 0 0
-1.42284 0 0
-1.42284 0 0
-1.37375 0 0
-1.37375 0 0
-1.32467 0 0
-1.32467 0 0
-1.27558 0 0
-1.27558 0 0
-1.22649 0 0
-1.22649 0 0
-1.1774 0 0
-1.1774 0 0
-1.12832 0 0
-1.12832 0 0
-1.07923 0 0
-1.07923 0 0
-1.03018 0 0
-1.03019 0 0
-0.981107 0 0
-0.981107 0 0
-0.932019 0 0
-0.932023 0 0
-0.882947 0 0
-0.882956 0 0
-0.83388 0 0
-0.833878 0 0
-0.784791 0 0
-0.784792 0 0
-0.735708 0 0
-0.735709 0 0
-0.686622 0 0
-0.686622 0 0
-0.637534 0 0
-0.637535 0 0
-0.588448 0 0
-0.588449 0 0
-0.539362 0 0
-0.539365 0 0
-0.490285 0 0
-0.490294 0 0
-0.441226 0 0
-0.441232 0 0
-0.392147 0 0
-0.392151 0 0
-0.343073 0 0
-0.343068 0 0
-0.294052 0 0
-0.294065 0 0
-0.245008 0 0
-0.24502 0 0
-0.195949 0 0
-0.195947 0 0
-0.147044 0 0
-0.147049 0 0
-0.0981747 0 0
-0.0981748 0 0
-0.0490874 0 0
-0.0490874 0 0
-2.18279e-11 0 0
SCALARS potential double 1
LOOKUP_TABLE default
0 0.615608 0.615608 1.22881 1.22881 1.8396 1.8396 2.44798 2.44798 3.05395 3.05395 3.65751 3.65751 4.25866 4.25866 4.8574 4.8574 5.45373 5.45373 6.04765 6.04765 6.63917 6.63917 7.22827 7.22827 7.81496 7.81496 8.39925 8.39925 8.98112 8.98112 9.56059 9.56059 10.1376 10.1376 10.7123 10.7123 11.2845 11.2845 11.8544 11.8544 12.4218 12.4218 12.9868 12.9868 13.5494 13.5494 14.1096 14.1096 14.6673 14.6673 15.2227 15.2227 15.7757 15.7757 16.3262 16.3262 16.8744 16.8744 17.4201 17.4201 17.9634 17.9634 18.5043 18.5043 19.0428 19.0428 19.5789 19.5789 20.1126 20.1126 20.6439 20.6439 21.1727 21.1727 21.6992 21.6992 22.2232 22.2232 22.7449 22.7449 23.2641 23.2641 23.7809 23.7809 24.2953 24.2953 24.8073 24.8073 25.3169 25.3169 25.8241 25.8241 26.3289 26.3289 26.8312 26.8312 27.3312 27.3312 27.8287 27.8287 28.3238 28.3238 28.8165 28.8165 29.3069 29.3069 29.7948 29.7948 30.2803 30.2803 30.7633 30.7633 31.244 31.244 31.7223 31.7223 32.1981 32.1981 32.6716 32.6716 33.1426 33.1426 33.6112 33.6112 34.0774 34.0774 34.5412 34.5412 35.0026 35.0026 35.4616 35.4616 35.9182 35.9182 36.3724 36.3724 36.8241 36.8241 37.2735 37.2735 37.7204 37.7204 38.1649 38.1649 38.6071 38.6071 39.0468 39.0468 39.4841 39.4841 39.919 39.919 40.3514 40.3514 40.7815 40.7815 41.2092 41.2092 41.6344 41.6344 42.0573 42.0573 42.4777 42.4777 42.8957 42.8957 43.3113 43.3113 43.7245 43.7245 44.1353 44.1353 44.5437 44.5437 44.9497 44.9497 45.3533 45.3533 45.7544 45.7544 46.1532 46.1532 46.5495 46.5495 46.9434 46.9434 47.335 47.335 47.7241 47.7241 48.1108 48.1108 48.4951 48.4951 48.8769 48.8769 49.2564 49.2564 49.6335 49.6335 50.0081 50.0081 50.3804 50.3804 50.7502 50.7502 51.1176 51.1176 51.4826 51.4826 51.8452 51.8452 52.2054 52.2054 52.5632 52.5632 52.9186 52.9186 53.2715 53.2715 53.6221 53.6221 53.9703 53.9703 54.316 54.316 54.6593 54.6593 55.0002 55.0002 55.3387 55.3387 55.6748 55.6748 56.0085 56.0085 56.3398 56.3398 56.6687 56.6687 56.9951 56.9951 57.3192 57.3192 57.6408 57.6408 57.9601 57.9601 58.2769 58.2769 58.5913 58.5913 58.9033 58.9033 59.2129 59.2129 59.5201 59.5201 59.8248 59.8248 60.1272 60.1272 60.4272 60.4272 60.7247 60.7247 61.0198 61.0198 61.3126 61.3126 61.6029 61.6029 61.8908 61.8908 62.1763 62.1763 62.4594 62.4594 62.7401 62.7401 63.0183 63.0183 63.2942 63.2942 63.5676 63.5676 63.8387 63.8387 64.1073 64.1073 64.3735 64.3735 64.6373 64.6373 64.8987 64.8987 65.1577 65.1577 65.4143 65.4143 65.6685 65.6685 65.9202 65.9202 66.1696 66.1696 66.4165 66.4165 66.6611 66.6611 66.9032 66.9032 67.1429 67.1429 67.3802 67.3802 67.6151 67.6151 67.8476 67.8476 68.0777 68.0777 68.3054 68.3054 68.5306 68.5306 68.7535 68.7535 68.9739 68.9739 69.1919 69.1919 69.4075 69.4075 69.6208 69.6208 69.8316 69.8316 70.0399 70.0399 70.2459 70.2459 70.4495 70.4495 70.6507 70.6507 70.8494 70.8494 71.0458 71.0458 71.2397 71.2397 71.4312 71.4312 71.6203 71.6203 71.807 71.807 71.9913 71.9913 72.1732 72.1732 72.3527 72.3527 72.5298 72.5298 72.7044 72.7044 72.8767 72.8767 73.0465 73.0465 73.2139 73.2139 73.3789 73.3789 73.5415 73.5415 73.7018 73.7018 73.8595 73.8595 74.0149 74.0149 74.1679 74.1679 74.3185 74.3185 74.4666 74.4666 74.6124 74.6124 74.7557 74.7557 74.8966 74.8966 75.0351 75.0351 75.1712 75.1712 75.3049 75.3049 75.4362 75.4362 75.5651 75.5651 75.6915 75.6915 75.8156 75.8156 75.9372 75.9372 76.0565 76.0565 76.1733 76.1733 76.2877 76.2877 76.3997 76.3997 76.5093 76.5093 76.6165 76.6165 76.7213 76.7213 76.8237 76.8237 76.9236 76.9236 77.0212 77.0212 77.1163 77.1163 77.2091 77.2091 77.2994 77.2994 77.3873 77.3873 77.4728 77.4728 77.5559 77.5559 77.6366 77.6366 77.7148 77.7148 77.7907 77.7907 77.8642 77.8642 77.9352 77.9352 78.0039 78.0039 78.0701 78.0701 78.1339 78.1339 78.1953 78.1953 78.2543 78.2543 78.3109 78.3109 78.3651 78.3651 78.4169 78.4169 78.4662 78.4662 78.5132 78.5132 78.5577 78.5577 78.5999 78.5999 78.6396 78.6396 78.6769 78.6769 78.7118 78.7118 78.7443 78.7443 78.7744 78.7744 78.8021 78.8021 78.8274 78.8274 78.8502 78.8502 78.8707 78.8707 78.8887 78.8887 78.9044 78.9044 78.9176 78.9176 78.9284 78.9284 78.9368 78.9368 78.9428 78.9428 78.9465 78.9465 78.9477 
SCALARS x_coordinate double 1
LOOKUP_TABLE default
0 0.0490874 0.0490874 0.0981748 0.0981748 0.147262 0.147262 0.19635 0.19635 0.245437 0.245437 0.294524 0.294524 0.343612 0.343612 0.392699 0.392699 0.441786 0.441786 0.490874 0.490874 0.539961 0.539961 0.589049 0.589049 0.638136 0.638136 0.687223 0.687223 0.736311 0.736311 0.785398 0.785398 0.834486 0.834486 0.883573 0.883573 0.93266 0.93266 0.981748 0.981748 1.03084 1.03084 1.07992 1.07992 1.12901 1.12901 1.1781 1.1781 1.22718 1.22718 1.27627 1.27627 1.32536 1.32536 1.37445 1.37445 1.42353 1.42353 1.47262 1.47262 1.52171 1.52171 1.5708 1.5708 1.61988 1.61988 1.66897 1.66897 1.71806 1.71806 1.76715 1.76715 1.81623 1.81623 1.86532 1.86532 1.91441 1.91441 1.9635 1.9635 2.01258 2.01258 2.06167 2.06167 2.11076 2.11076 2.15984 2.15984 2.20893 2.20893 2.25802 2.25802 2.30711 2.30711 2.35619 2.35619 2.40528 2.40528 2.45437 2.45437 2.50346 2.50346 2.55254 2.55254 2.60163 2.60163 2.65072 2.65072 2.69981 2.69981 2.74889 2.74889 2.79798 2.79798 2.84707 2.84707 2.89616 2.89616 2.94524 2.94524 2.99433 2.99433 3.04342 3.04342 3.09251 3.09251 3.14159 3.14159 3.19068 3.19068 3.23977 3.23977 3.28885 3.28885 3.33794 3.33794 3.38703 3.38703 3.43612 3.43612 3.4852 3.4852 3.53429 3.53429 3.58338 3.58338 3.63247 3.63247 3.68155 3.68155 3.73064 3.73064 3.77973 3.77973 3.82882 3.82882 3.8779 3.8779 3.92699 3.92699 3.97608 3.97608 4.02517 4.02517 4.07425 4.07425 4.12334 4.12334 4.17243 4.17243 4.22152 4.22152 4.2706 4.2706 4.31969 4.31969 4.36878 4.36878 4.41786 4.41786 4.46695 4.46695 4.51604 4.51604 4.56513 4.56513 4.61421 4.61421 4.6633 4.6633 4.71239 4.71239 4.76148 4.76148 4.81056 4.81056 4.85965 4.85965 4.90874 4.90874 4.95783 4.95783 5.00691 5.00691 5.056 5.056 5.10509 5.10509 5.15418 5.15418 5.20326 5.20326 5.25235 5.25235 5.30144 5.30144 5.35052 5.35052 5.39961 5.39961 5.4487 5.4487 5.49779 5.49779 5.54687 5.54687 5.59596 5.59596 5.64505 5.64505 5.69414 5.69414 5.74322 5.74322 5.79231 5.79231 5.8414 5.8414 5.89049 5.89049 5.93957 5.93957 5.98866 5.98866 6.03775 6.03775 6.08684 6.08684 6.13592 6.13592 6.18501 6.18501 6.2341 6.2341 6.28319 6.28319 6.33227 6.33227 6.38136 6.38136 6.43045 6.43045 6.47953 6.47953 6.52862 6.52862 6.57771 6.57771 6.6268 6.6268 6.67588 6.67588 6.72497 6.72497 6.77406 6.77406 6.82315 6.82315 6.87223 6.87223 6.92132 6.92132 6.97041 6.97041 7.0195 7.0195 7.06858 7.06858 7.11767 7.11767 7.16676 7.16676 7.21585 7.21585 7.26493 7.26493 7.31402 7.31402 7.36311 7.36311 7.4122 7.4122 7.46128 7.46128 7.51037 7.51037 7.55946 7.55946 7.60854 7.60854 7.65763 7.65763 7.70672 7.70672 7.75581 7.75581 7.80489 7.80489 7.85398 7.85398 7.90307 7.90307 7.95216 7.95216 8.00124 8.00124 8.05033 8.05033 8.09942 8.09942 8.14851 8.14851 8.19759 8.19759 8.24668 8.24668 8.29577 8.29577 8.34486 8.34486 8.39394 8.39394 8.44303 8.44303 8.49212 8.49212 8.54121 8.54121 8.59029 8.59029 8.63938 8.63938 8.68847 8.68847 8.73755 8.73755 8.78664 8.78664 8.83573 8.83573 8.88482 8.88482 8.9339 8.9339 8.98299 8.98299 9.03208 9.03208 9.08117 9.08117 9.13025 9.13025 9.17934 9.17934 9.22843 9.22843 9.27752 9.27752 9.3266 9.3266 9.37569 9.37569 9.42478 9.42478 9.47387 9.47387 9.52295 9.52295 9.57204 9.57204 9.62113 9.62113 9.67021 9.67021 9.7193 9.7193 9.76839 9.76839 9.81748 9.81748 9.86656 9.86656 9.91565 9.91565 9.96474 9.96474 10.0138 10.0138 10.0629 10.0629 10.112 10.112 10.1611 10.1611 10.2102 10.2102 10.2593 10.2593 10.3084 10.3084 10.3574 10.3574 10.4065 10.4065 10.4556 10.4556 10.5047 10.5047 10.5538 10.5538 10.6029 10.6029 10.652 10.652 10.701 10.701 10.7501 10.7501 10.7992 10.7992 10.8483 10.8483 10.8974 10.8974 10.9465 10.9465 10.9956 10.9956 11.0447 11.0447 11.0937 11.0937 11.1428 11.1428 11.1919 11.1919 11.241 11.241 11.2901 11.2901 11.3392 11.3392 11.3883 11.3883 11.4374 11.4374 11.4864 11.4864 11.5355 11.5355 11.5846 11.5846 11.6337 11.6337 11.6828 11.6828 11.7319 11.7319 11.781 11.781 11.8301 11.8301 11.8791 11.8791 11.9282 11.9282 11.9773 11.9773 12.0264 12.0264 12.0755 12.0755 12.1246 12.1246 12.1737 12.1737 12.2228 12.2228 12.2718 12.2718 12.3209 12.3209 12.37 12.37 12.4191 12.4191 12.4682 12.4682 12.5173 12.5173 12.5664 
