# vtk DataFile Version 3.0
#This file was generated by the deal.II library on 2026/3/10 at 19:06:33
ASCII
DATASET UNSTRUCTURED_GRID

POINTS 512 double
0 0 0
0.0490874 0 0
0.0490874 0 0
0.0981748 0 0
0.0981748 0 0
0.147262 0 0
0.147262 0 0
0.19635 0 0
0.19635 0 0
0.245437 0 0
0.245437 0 0
0.294524 0 0
0.294524 0 0
0.343612 0 0
0.343612 0 0
0.392699 0 0
0.392699 0 0
0.441786 0 0
0.441786 0 0
0.490874 0 0
0.490874 0 0
0.539961 0 0
0.539961 0 0
0.589049 0 0
0.589049 0 0
0.638136 0 0
0.638136 0 0
0.687223 0 0
0.687223 0 0
0.736311 0 0
0.736311 0 0
0.785398 0 0
0.785398 0 0
0.834486 0 0
0.834486 0 0
0.883573 0 0
0.883573 0 0
0.93266 0 0
0.93266 0 0
0.981748 0 0
0.981748 0 0
1.03084 0 0
1.03084 0 0
1.07992 0 0
1.07992 0 0
1.12901 0 0
1.12901 0 0
1.1781 0 0
1.1781 0 0
1.22718 0 0
1.22718 0 0
1.27627 0 0
1.27627 0 0
1.32536 0 0
1.32536 0 0
1.37445 0 0
1.37445 0 0
1.42353 0 0
1.42353 0 0
1.47262 0 0
1.47262 0 0
1.52171 0 0
1.52171 0 0
1.5708 0 0
1.5708 0 0
1.61988 0 0
1.61988 0 0
1.66897 0 0
1.66897 0 0
1.71806 0 0
1.71806 0 0
1.76715 0 0
1.76715 0 0
1.81623 0 0
1.81623 0 0
1.86532 0 0
1.86532 0 0
1.91441 0 0
1.91441 0 0
1.9635 0 0
1.9635 0 0
2.01258 0 0
2.01258 0 0
2.06167 0 0
2.06167 0 0
2.11076 0 0
2.11076 0 0
2.15984 0 0
2.15984 0 0
2.20893 0 0
2.20893 0 0
2.25802 0 0
2.25802 0 0
2.30711 0 0
2.30711 0 0
2.35619 0 0
2.35619 0 0
2.40528 0 0
2.40528 0 0
2.45437 0 0
2.45437 0 0
2.50346 0 0
2.50346 0 0
2.55254 0 0
2.55254 0 0
2.60163 0 0
2.60163 0 0
2.65072 0 0
2.65072 0 0
2.69981 0 0
2.69981 0 0
2.74889 0 0
2.74889 0 0
2.79798 0 0
2.79798 0 0
2.84707 0 0
2.84707 0 0
2.89616 0 0
2.89616 0 0
2.94524 0 0
2.94524 0 0
2.99433 0 0
2.99433 0 0
3.04342 0 0
3.04342 0 0
3.09251 0 0
3.09251 0 0
3.14159 0 0
3.14159 0 0
3.19068 0 0
3.19068 0 0
3.23977 0 0
3.23977 0 0
3.28885 0 0
3.28885 0 0
3.33794 0 0
3.33794 0 0
3.38703 0 0
3.38703 0 0
3.43612 0 0
3.43612 0 0
3.4852 0 0
3.4852 0 0
3.53429 0 0
3.53429 0 0
3.58338 0 0
3.58338 0 0
3.63247 0 0
3.63247 0 0
3.68155 0 0
3.68155 0 0
3.73064 0 0
3.73064 0 0
3.77973 0 0
3.77973 0 0
3.82882 0 0
3.82882 0 0
3.8779 0 0
3.8779 0 0
3.92699 0 0
3.92699 0 0
3.97608 0 0
3.97608 0 0
4.02517 0 0
4.02517 0 0
4.07425 0 0
4.07425 0 0
4.12334 0 0
4.12334 0 0
4.17243 0 0
4.17243 0 0
4.22152 0 0
4.22152 0 0
4.2706 0 0
4.2706 0 0
4.31969 0 0
4.31969 0 0
4.36878 0 0
4.36878 0 0
4.41786 0 0
4.41786 0 0
4.46695 0 0
4.46695 0 0
4.51604 0 0
4.51604 0 0
4.56513 0 0
4.56513 0 0
4.61421 0 0
4.61421 0 0
4.6633 0 0
4.6633 0 0
4.71239 0 0
4.71239 0 0
4.76148 0 0
4.76148 0 0
4.81056 0 0
4.81056 0 0
4.85965 0 0
4.85965 0 0
4.90874 0 0
4.90874 0 0
4.95783 0 0
4.95783 0 0
5.00691 0 0
5.00691 0 0
5.056 0 0
5.056 0 0
5.10509 0 0
5.10509 0 0
5.15418 0 0
5.15418 0 0
5.20326 0 0
5.20326 0 0
5.25235 0 0
5.25235 0 0
5.30144 0 0
5.30144 0 0
5.35052 0 0
5.35052 0 0
5.39961 0 0
5.39961 0 0
5.4487 0 0
5.4487 0 0
5.49779 0 0
5.49779 0 0
5.54687 0 0
5.54687 0 0
5.59596 0 0
5.59596 0 0
5.64505 0 0
5.64505 0 0
5.69414 0 0
5.69414 0 0
5.74322 0 0
5.74322 0 0
5.79231 0 0
5.79231 0 0
5.8414 0 0
5.8414 0 0
5.89049 0 0
5.89049 0 0
5.93957 0 0
5.93957 0 0
5.98866 0 0
5.98866 0 0
6.03775 0 0
6.03775 0 0
6.08684 0 0
6.08684 0 0
6.13592 0 0
6.13592 0 0
6.18501 0 0
6.18501 0 0
6.2341 0 0
6.2341 0 0
6.28319 0 0
6.28319 0 0
6.33227 0 0
6.33227 0 0
6.38136 0 0
6.38136 0 0
6.43045 0 0
6.43045 0 0
6.47953 0 0
6.47953 0 0
6.52862 0 0
6.52862 0 0
6.57771 0 0
6.57771 0 0
6.6268 0 0
6.6268 0 0
6.67588 0 0
6.67588 0 0
6.72497 0 0
6.72497 0 0
6.77406 0 0
6.77406 0 0
6.82315 0 0
6.82315 0 0
6.87223 0 0
6.87223 0 0
6.92132 0 0
6.92132 0 0
6.97041 0 0
6.97041 0 0
7.0195 0 0
7.0195 0 0
7.06858 0 0
7.06858 0 0
7.11767 0 0
7.11767 0 0
7.16676 0 0
7.16676 0 0
7.21585 0 0
7.21585 0 0
7.26493 0 0
7.26493 0 0
7.31402 0 0
7.31402 0 0
7.36311 0 0
7.36311 0 0
7.4122 0 0
7.4122 0 0
7.46128 0 0
7.46128 0 0
7.51037 0 0
7.51037 0 0
7.55946 0 0
7.55946 0 0
7.60854 0 0
7.60854 0 0
7.65763 0 0
7.65763 0 0
7.70672 0 0
7.70672 0 0
7.75581 0 0
7.75581 0 0
7.80489 0 0
7.80489 0 0
7.85398 0 0
7.85398 0 0
7.90307 0 0
7.90307 0 0
7.95216 0 0
7.95216 0 0
8.00124 0 0
8.00124 0 0
8.05033 0 0
8.05033 0 0
8.09942 0 0
8.09942 0 0
8.14851 0 0
8.14851 0 0
8.19759 0 0
8.19759 0 0
8.24668 0 0
8.24668 0 0
8.29577 0 0
8.29577 0 0
8.34486 0 0
8.34486 0 0
8.39394 0 0
8.39394 0 0
8.44303 0 0
8.44303 0 0
8.49212 0 0
8.49212 0 0
8.54121 0 0
8.54121 0 0
8.59029 0 0
8.59029 0 0
8.63938 0 0
8.63938 0 0
8.68847 0 0
8.68847 0 0
8.73755 0 0
8.73755 0 0
8.78664 0 0
8.78664 0 0
8.83573 0 0
8.83573 0 0
8.88482 0 0
8.88482 0 0
8.9339 0 0
8.9339 0 0
8.98299 0 0
8.98299 0 0
9.03208 0 0
9.03208 0 0
9.08117 0 0
9.08117 0 0
9.13025 0 0
9.13025 0 0
9.17934 0 0
9.17934 0 0
9.22843 0 0
9.22843 0 0
9.27752 0 0
9.27752 0 0
9.3266 0 0
9.3266 0 0
9.37569 0 0
9.37569 0 0
9.42478 0 0
9.42478 0 0
9.47387 0 0
9.47387 0 0
9.52295 0 0
9.52295 0 0
9.57204 0 0
9.57204 0 0
9.62113 0 0
9.62113 0 0
9.67021 0 0
9.67021 0 0
9.7193 0 0
9.7193 0 0
9.76839 0 0
9.76839 0 0
9.81748 0 0
9.81748 0 0
9.86656 0 0
9.86656 0 0
9.91565 0 0
9.91565 0 0
9.96474 0 0
9.96474 0 0
10.0138 0 0
10.0138 0 0
10.0629 0 0
10.0629 0 0
10.112 0 0
10.112 0 0
10.1611 0 0
10.1611 0 0
10.2102 0 0
10.2102 0 0
10.2593 0 0
10.2593 0 0
10.3084 0 0
10.3084 0 0
10.3574 0 0
10.3574 0 0
10.4065 0 0
10.4065 0 0
10.4556 0 0
10.4556 0 0
10.5047 0 0
10.5047 0 0
10.5538 0 0
10.5538 0 0
10.6029 0 0
10.6029 0 0
10.652 0 0
10.652 0 0
10.701 0 0
10.701 0 0
10.7501 0 0
10.7501 0 0
10.7992 0 0
10.7992 0 0
10.8483 0 0
10.8483 0 0
10.8974 0 0
10.8974 0 0
10.9465 0 0
10.9465 0 0
10.9956 0 0
10.9956 0 0
11.0447 0 0
11.0447 0 0
11.0937 0 0
11.0937 0 0
11.1428 0 0
11.1428 0 0
11.1919 0 0
11.1919 0 0
11.241 0 0
11.241 0 0
11.2901 0 0
11.2901 0 0
11.3392 0 0
11.3392 0 0
11.3883 0 0
11.3883 0 0
11.4374 0 0
11.4374 0 0
11.4864 0 0
11.4864 0 0
11.5355 0 0
11.5355 0 0
11.5846 0 0
11.5846 0 0
11.6337 0 0
11.6337 0 0
11.6828 0 0
11.6828 0 0
11.7319 0 0
11.7319 0 0
11.781 0 0
11.781 0 0
11.8301 0 0
11.8301 0 0
11.8791 0 0
11.8791 0 0
11.9282 0 0
11.9282 0 0
11.9773 0 0
11.9773 0 0
12.0264 0 0
12.0264 0 0
12.0755 0 0
12.0755 0 0
12.1246 0 0
12.1246 0 0
12.1737 0 0
12.1737 0 0
12.2228 0 0
12.2228 0 0
12.2718 0 0
12.2718 0 0
12.3209 0 0
12.3209 0 0
12.37 0 0
12.37 0 0
12.4191 0 0
12.4191 0 0
12.4682 0 0
12.4682 0 0
12.5173 0 0
12.5173 0 0
12.5664 0 0

CELLS 256 768
2	0	1
2	2	3
2	4	5
2	6	7
2	8	9
2	10	11
2	12	13
2	14	15
2	16	17
2	18	19
2	20	21
2	22	23
2	24	25
2	26	27
2	28	29
2	30	31
2	32	33
2	34	35
2	36	37
2	38	39
2	40	41
2	42	43
2	44	45
2	46	47
2	48	49
2	50	51
2	52	53
2	54	55
2	56	57
2	58	59
2	60	61
2	62	63
2	64	65
2	66	67
2	68	69
2	70	71
2	72	73
2	74	75
2	76	77
2	78	79
2	80	81
2	82	83
2	84	85
2	86	87
2	88	89
2	90	91
2	92	93
2	94	95
2	96	97
2	98	99
2	100	101
2	102	103
2	104	105
2	106	107
2	108	109
2	110	111
2	112	113
2	114	115
2	116	117
2	118	119
2	120	121
2	122	123
2	124	125
2	126	127
2	128	129
2	130	131
2	132	133
2	134	135
2	136	137
2	138	139
2	140	141
2	142	143
2	144	145
2	146	147
2	148	149
2	150	151
2	152	153
2	154	155
2	156	157
2	158	159
2	160	161
2	162	163
2	164	165
2	166	167
2	168	169
2	170	171
2	172	173
2	174	175
2	176	177
2	178	179
2	180	181
2	182	183
2	184	185
2	186	187
2	188	189
2	190	191
2	192	193
2	194	195
2	196	197
2	198	199
2	200	201
2	202	203
2	204	205
2	206	207
2	208	209
2	210	211
2	212	213
2	214	215
2	216	217
2	218	219
2	220	221
2	222	223
2	224	225
2	226	227
2	228	229
2	230	231
2	232	233
2	234	235
2	236	237
2	238	239
2	240	241
2	242	243
2	244	245
2	246	247
2	248	249
2	250	251
2	252	253
2	254	255
2	256	257
2	258	259
2	260	261
2	262	263
2	264	265
2	266	267
2	268	269
2	270	271
2	272	273
2	274	275
2	276	277
2	278	279
2	280	281
2	282	283
2	284	285
2	286	287
2	288	289
2	290	291
2	292	293
2	294	295
2	296	297
2	298	299
2	300	301
2	302	303
2	304	305
2	306	307
2	308	309
2	310	311
2	312	313
2	314	315
2	316	317
2	318	319
2	320	321
2	322	323
2	324	325
2	326	327
2	328	329
2	330	331
2	332	333
2	334	335
2	336	337
2	338	339
2	340	341
2	342	343
2	344	345
2	346	347
2	348	349
2	350	351
2	352	353
2	354	355
2	356	357
2	358	359
2	360	361
2	362	363
2	364	365
2	366	367
2	368	369
2	370	371
2	372	373
2	374	375
2	376	377
2	378	379
2	380	381
2	382	383
2	384	385
2	386	387
2	388	389
2	390	391
2	392	393
2	394	395
2	396	397
2	398	399
2	400	401
2	402	403
2	404	405
2	406	407
2	408	409
2	410	411
2	412	413
2	414	415
2	416	417
2	418	419
2	420	421
2	422	423
2	424	425
2	426	427
2	428	429
2	430	431
2	432	433
2	434	435
2	436	437
2	438	439
2	440	441
2	442	443
2	444	445
2	446	447
2	448	449
2	450	451
2	452	453
2	454	455
2	456	457
2	458	459
2	460	461
2	462	463
2	464	465
2	466	467
2	468	469
2	470	471
2	472	473
2	474	475
2	476	477
2	478	479
2	480	481
2	482	483
2	484	485
2	486	487
2	488	489
2	490	491
2	492	493
2	494	495
2	496	497
2	498	499
2	500	501
2	502	503
2	504	505
2	506	507
2	508	509
2	510	511

CELL_TYPES 256
 3 3 3 3 3 3 3 3 3 3 3 3 3 3 3 3 3 3 3 3 3 3 3 3 3 3 3 3 3 3 3 3 3 3 3 3 3 3 3 3 3 3 3 3 3 3 3 3 3 3 3 3 3 3 3 3 3 3 3 3 3 3 3 3 3 3 3 3 3 3 3 3 3 3 3 3 3 3 3 3 3 3 3 3 3 3 3 3 3 3 3 3 3 3 3 3 3 3 3 3 3 3 3 3 3 3 3 3 3 3 3 3 3 3 3 3 3 3 3 3 3 3 3 3 3 3 3 3 3 3 3 3 3 3 3 3 3 3 3 3 3 3 3 3 3 3 3 3 3 3 3 3 3 3 3 3 3 3 3 3 3 3 3 3 3 3 3 3 3 3 3 3 3 3 3 3 3 3 3 3 3 3 3 3 3 3 3 3 3 3 3 3 3 3 3 3 3 3 3 3 3 3 3 3 3 3 3 3 3 3 3 3 3 3 3 3 3 3 3 3 3 3 3 3 3 3 3 3 3 3 3 3 3 3 3 3 3 3 3 3 3 3 3 3 3 3 3 3 3 3 3 3 3 3 3 3
POINT_DATA 512
VECTORS electric_field double
-11.7511 0 0
-11.702 0 0
-11.702 0 0
-11.6529 0 0
-11.6529 0 0
-11.6038 0 0
-11.6038 0 0
-11.5547 0 0
-11.5547 0 0
-11.5056 0 0
-11.5056 0 0
-11.4565 0 0
-11.4565 0 0
-11.4074 0 0
-11.4074 0 0
-11.3584 0 0
-11.3584 0 0
-11.3093 0 0
-11.3093 0 0
-11.2602 0 0
-11.2602 0 0
-11.2111 0 0
-11.2111 0 0
-11.162 0 0
-11.162 0 0
-11.1129 0 0
-11.1129 0 0
-11.0638 0 0
-11.0638 0 0
-11.0147 0 0
-11.0147 0 0
-10.9657 0 0
-10.9657 0 0
-10.9166 0 0
-10.9166 0 0
-10.8675 0 0
-10.8675 0 0
-10.8184 0 0
-10.8184 0 0
-10.7693 0 0
-10.7693 0 0
-10.7202 0 0
-10.7202 0 0
-10.6711 0 0
-10.6711 0 0
-10.622 0 0
-10.622 0 0
-10.573 0 0
-10.573 0 0
-10.5239 0 0
-10.5239 0 0
-10.4748 0 0
-10.4748 0 0
-10.4257 0 0
-10.4257 0 0
-10.3766 0 0
-10.3766 0 0
-10.3275 0 0
-10.3275 0 0
-10.2784 0 0
-10.2784 0 0
-10.2293 0 0
-10.2293 0 0
-10.1803 0 0
-10.1803 0 0
-10.1312 0 0
-10.1312 0 0
-10.0821 0 0
-10.0821 0 0
-10.033 0 0
-10.033 0 0
-9.98391 0 0
-9.98391 0 0
-9.93482 0 0
-9.93482 0 0
-9.88574 0 0
-9.88574 0 0
-9.83665 0 0
-9.83665 0 0
-9.78756 0 0
-9.78756 0 0
-9.73847 0 0
-9.73847 0 0
-9.68939 0 0
-9.68939 0 0
-9.6403 0 0
-9.6403 0 0
-9.59121 0 0
-9.59121 0 0
-9.54212 0 0
-9.54212 0 0
-9.49304 0 0
-9.49304 0 0
-9.44395 0 0
-9.44395 0 0
-9.39486 0 0
-9.39486 0 0
-9.34578 0 0
-9.34578 0 0
-9.29669 0 0
-9.29669 0 0
-9.2476 0 0
-9.2476 0 0
-9.19851 0 0
-9.19851 0 0
-9.14943 0 0
-9.14943 0 0
-9.10034 0 0
-9.10034 0 0
-9.05125 0 0
-9.05125 0 0
-9.00216 0 0
-9.00216 0 0
-8.95308 0 0
-8.95308 0 0
-8.90399 0 0
-8.90399 0 0
-8.8549 0 0
-8.8549 0 0
-8.80581 0 0
-8.80581 0 0
-8.75673 0 0
-8.75673 0 0
-8.70764 0 0
-8.70764 0 0
-8.65855 0 0
-8.65855 0 0
-8.60946 0 0
-8.60946 0 0
-8.56038 0 0
-8.56038 0 0
-8.51129 0 0
-8.51129 0 0
-8.4622 0 0
-8.4622 0 0
-8.41312 0 0
-8.41312 0 0
-8.36403 0 0
-8.36403 0 0
-8.31494 0 0
-8.31494 0 0
-8.26585 0 0
-8.26585 0 0
-8.21677 0 0
-8.21677 0 0
-8.16768 0 0
-8.16768 0 0
-8.11859 0 0
-8.11859 0 0
-8.0695 0 0
-8.0695 0 0
-8.02042 0 0
-8.02042 0 0
-7.97133 0 0
-7.97133 0 0
-7.92224 0 0
-7.92224 0 0
-7.87315 0 0
-7.87315 0 0
-7.82407 0 0
-7.82407 0 0
-7.77498 0 0
-7.77498 0 0
-7.72589 0 0
-7.72589 0 0
-7.6768 0 0
-7.6768 0 0
-7.62772 0 0
-7.62772 0 0
-7.57863 0 0
-7.57863 0 0
-7.52954 0 0
-7.52954 0 0
-7.48045 0 0
-7.48045 0 0
-7.43137 0 0
-7.43137 0 0
-7.38228 0 0
-7.38228 0 0
-7.33319 0 0
-7.33319 0 0
-7.28411 0 0
-7.28411 0 0
-7.23502 0 0
-7.23502 0 0
-7.18593 0 0
-7.18593 0 0
-7.13684 0 0
-7.13684 0 0
-7.08776 0 0
-7.08776 0 0
-7.03867 0 0
-7.03867 0 0
-6.98958 0 0
-6.98958 0 0
-6.94049 0 0
-6.94049 0 0
-6.89141 0 0
-6.89141 0 0
-6.84232 0 0
-6.84232 0 0
-6.79323 0 0
-6.79323 0 0
-6.74414 0 0
-6.74414 0 0
-6.69506 0 0
-6.69506 0 0
-6.64597 0 0
-6.64597 0 0
-6.59688 0 0
-6.59688 0 0
-6.54779 0 0
-6.54779 0 0
-6.49871 0 0
-6.49871 0 0
-6.44962 0 0
-6.44962 0 0
-6.40053 0 0
-6.40053 0 0
-6.35145 0 0
-6.35145 0 0
-6.30236 0 0
-6.30236 0 0
-6.25327 0 0
-6.25327 0 0
-6.20418 0 0
-6.20418 0 0
-6.1551 0 0
-6.1551 0 0
-6.10601 0 0
-6.10601 0 0
-6.05692 0 0
-6.05692 0 0
-6.00783 0 0
-6.00783 0 0
-5.95875 0 0
-5.95875 0 0
-5.90966 0 0
-5.90966 0 0
-5.86057 0 0
-5.86057 0 0
-5.81148 0 0
-5.81148 0 0
-5.7624 0 0
-5.7624 0 0
-5.71331 0 0
-5.71331 0 0
-5.66422 0 0
-5.66422 0 0
-5.61513 0 0
-5.61513 0 0
-5.56605 0 0
-5.56605 0 0
-5.51696 0 0
-5.51696 0 0
-5.46787 0 0
-5.46787 0 0
-5.41878 0 0
-5.41878 0 0
-5.3697 0 0
-5.3697 0 0
-5.32061 0 0
-5.32061 0 0
-5.27152 0 0
-5.27152 0 0
-5.22243 0 0
-5.22243 0 0
-5.17335 0 0
-5.17335 0 0
-5.12426 0 0
-5.12426 0 0
-5.07517 0 0
-5.07517 0 0
-5.02609 0 0
-5.02609 0 0
-4.977 0 0
-4.977 0 0
-4.92791 0 0
-4.92791 0 0
-4.87882 0 0
-4.87882 0 0
-4.82974 0 0
-4.82974 0 0
-4.78065 0 0
-4.78065 0 0
-4.73156 0 0
-4.73156 0 0
-4.68247 0 0
-4.68247 0 0
-4.63339 0 0
-4.63339 0 0
-4.5843 0 0
-4.5843 0 0
-4.53521 0 0
-4.53521 0 0
-4.48612 0 0
-4.48612 0 0
-4.43704 0 0
-4.43704 0 0
-4.38795 0 0
-4.38795 0 0
-4.33886 0 0
-4.33886 0 0
-4.28977 0 0
-4.28977 0 0
-4.24069 0 0
-4.24069 0 0
-4.1916 0 0
-4.1916 0 0
-4.14251 0 0
-4.14251 0 0
-4.09343 0 0
-4.09343 0 0
-4.04434 0 0
-4.04434 0 0
-3.99525 0 0
-3.99525 0 0
-3.94616 0 0
-3.94616 0 0
-3.89708 0 0
-3.89708 0 0
-3.84799 0 0
-3.84799 0 0
-3.7989 0 0
-3.7989 0 0
-3.74981 0 0
-3.74981 0 0
-3.70073 0 0
-3.70073 0 0
-3.65164 0 0
-3.65164 0 0
-3.60255 0 0
-3.60255 0 0
-3.55346 0 0
-3.55346 0 0
-3.50438 0 0
-3.50438 0 0
-3.45529 0 0
-3.45529 0 0
-3.4062 0 0
-3.4062 0 0
-3.35711 0 0
-3.35711 0 0
-3.30803 0 0
-3.30803 0 0
-3.25894 0 0
-3.25894 0 0
-3.20985 0 0
-3.20985 0 0
-3.16076 0 0
-3.16076 0 0
-3.11168 0 0
-3.11168 0 0
-3.06259 0 0
-3.06259 0 0
-3.0135 0 0
-3.0135 0 0
-2.96442 0 0
-2.96442 0 0
-2.91533 0 0
-2.91533 0 0
-2.86624 0 0
-2.86624 0 0
-2.81715 0 0
-2.81715 0 0
-2.76807 0 0
-2.76807 0 0
-2.71898 0 0
-2.71898 0 0
-2.66989 0 0
-2.66989 0 0
-2.6208 0 0
-2.6208 0 0
-2.57172 0 0
-2.57172 0 0
-2.52263 0 0
-2.52263 0 0
-2.47354 0 0
-2.47354 0 0
-2.42445 0 0
-2.42445 0 0
-2.37537 0 0
-2.37537 0 0
-2.32628 0 0
-2.32629 0 0
-2.27744 0 0
-2.27737 0 0
-2.2283 0 0
-2.2284 0 0
-2.17953 0 0
-2.17947 0 0
-2.13069 0 0
-2.13069 0 0
-2.08178 0 0
-2.08173 0 0
-2.03264 0 0
-2.03264 0 0
-1.98355 0 0
-1.98355 0 0
-1.9345 0 0
-1.93449 0 0
-1.8854 0 0
-1.8854 0 0
-1.83631 0 0
-1.83651 0 0
-1.78808 0 0
-1.7883 0 0
-1.74008 0 0
-1.73977 0 0
-1.69157 0 0
-1.6917 0 0
-1.64303 0 0
-1.64291 0 0
-1.59382 0 0
-1.59392 0 0
-1.54572 0 0
-1.54588 0 0
-1.49754 0 0
-1.49744 0 0
-1.44836 0 0
-1.44836 0 0
-1.39927 0 0
-1.39942 0 0
-1.35574 0 0
-1.35422 0 0
-1.30515 0 0
-1.30515 0 0
-1.25606 0 0
-1.25604 0 0
-1.20703 0 0
-1.20703 0 0
-1.15794 0 0
-1.15794 0 0
-1.10886 0 0
-1.10883 0 0
-1.06012 0 0
-1.06032 0 0
-1.01264 0 0
-1.01262 0 0
-0.964847 0 0
-0.964962 0 0
-0.917076 0 0
-0.917237 0 0
-0.869182 0 0
-0.869238 0 0
-0.823104 0 0
-0.823204 0 0
-0.778257 0 0
-0.7784 0 0
-0.739686 0 0
-0.73982 0 0
-0.704498 0 0
-0.70442 0 0
-0.6709 0 0
-0.670842 0 0
-0.641226 0 0
-0.641369 0 0
-0.614341 0 0
-0.614357 0 0
-0.590279 0 0
-0.590002 0 0
-0.566505 0 0
-0.566573 0 0
-0.544995 0 0
-0.544953 0 0
-0.525434 0 0
-0.525359 0 0
-0.505604 0 0
-0.50554 0 0
-0.485793 0 0
-0.485927 0 0
-0.467248 0 0
-0.467065 0 0
-0.448335 0 0
-0.448096 0 0
-0.429647 0 0
-0.429687 0 0
-0.410726 0 0
-0.41133 0 0
-0.391982 0 0
-0.392071 0 0
-0.372426 0 0
-0.372093 0 0
-0.352684 0 0
-0.35291 0 0
-0.331641 0 0
-0.331431 0 0
-0.311631 0 0
-0.31178 0 0
-0.290844 0 0
-0.290896 0 0
-0.269655 0 0
-0.269623 0 0
-0.248639 0 0
-0.249068 0 0
-0.228227 0 0
-0.228624 0 0
-0.207591 0 0
-0.207667 0 0
-0.186423 0 0
-0.18625 0 0
-0.164643 0 0
-0.164611 0 0
-0.142817 0 0
-0.142931 0 0
-0.120759 0 0
-0.120686 0 0
-0.098148 0 0
-0.0981748 0 0
-0.0490874 0 0
-0.0490874 0 0
-2.91038e-11 0 0
SCALARS potential double 1
LOOKUP_TABLE default
0 0.575624 0.575624 1.14884 1.14884 1.71964 1.71964 2.28804 2.28804 2.85402 2.85402 3.4176 3.4176 3.97877 3.97877 4.53752 4.53752 5.09387 5.09387 5.64781 5.64781 6.19934 6.19934 6.74846 6.74846 7.29516 7.29516 7.83946 7.83946 8.38135 8.38135 8.92083 8.92083 9.4579 9.4579 9.99257 9.99257 10.5248 10.5248 11.0547 11.0547 11.5821 11.5821 12.1071 12.1071 12.6297 12.6297 13.1499 13.1499 13.6677 13.6677 14.1831 14.1831 14.6961 14.6961 15.2067 15.2067 15.7148 15.7148 16.2206 16.2206 16.7239 16.7239 17.2248 17.2248 17.7233 17.7233 18.2194 18.2194 18.7131 18.7131 19.2044 19.2044 19.6933 19.6933 20.1798 20.1798 20.6638 20.6638 21.1455 21.1455 21.6247 21.6247 22.1016 22.1016 22.576 22.576 23.048 23.048 23.5176 23.5176 23.9848 23.9848 24.4496 24.4496 24.912 24.912 25.3719 25.3719 25.8295 25.8295 26.2846 26.2846 26.7374 26.7374 27.1877 27.1877 27.6356 27.6356 28.0811 28.0811 28.5242 28.5242 28.9649 28.9649 29.4032 29.4032 29.839 29.839 30.2725 30.2725 30.7035 30.7035 31.1322 31.1322 31.5584 31.5584 31.9822 31.9822 32.4036 32.4036 32.8226 32.8226 33.2392 33.2392 33.6534 33.6534 34.0652 34.0652 34.4746 34.4746 34.8815 34.8815 35.2861 35.2861 35.6882 35.6882 36.0879 36.0879 36.4852 36.4852 36.8801 36.8801 37.2726 37.2726 37.6627 37.6627 38.0504 38.0504 38.4357 38.4357 38.8185 38.8185 39.199 39.199 39.577 39.577 39.9526 39.9526 40.3259 40.3259 40.6967 40.6967 41.0651 41.0651 41.4311 41.4311 41.7946 41.7946 42.1558 42.1558 42.5146 42.5146 42.8709 42.8709 43.2249 43.2249 43.5764 43.5764 43.9255 43.9255 44.2722 44.2722 44.6166 44.6166 44.9585 44.9585 45.2979 45.2979 45.635 45.635 45.9697 45.9697 46.3019 46.3019 46.6318 46.6318 46.9592 46.9592 47.2842 47.2842 47.6069 47.6069 47.9271 47.9271 48.2449 48.2449 48.5603 48.5603 48.8732 48.8732 49.1838 49.1838 49.492 49.492 49.7977 49.7977 50.1011 50.1011 50.402 50.402 50.7005 50.7005 50.9966 50.9966 51.2903 51.2903 51.5816 51.5816 51.8705 51.8705 52.157 52.157 52.4411 52.4411 52.7227 52.7227 53.002 53.002 53.2788 53.2788 53.5532 53.5532 53.8253 53.8253 54.0949 54.0949 54.3621 54.3621 54.6269 54.6269 54.8892 54.8892 55.1492 55.1492 55.4068 55.4068 55.6619 55.6619 55.9147 55.9147 56.165 56.165 56.4129 56.4129 56.6584 56.6584 56.9015 56.9015 57.1422 57.1422 57.3805 57.3805 57.6164 57.6164 57.8498 57.8498 58.0809 58.0809 58.3095 58.3095 58.5358 58.5358 58.7596 58.7596 58.981 58.981 59.2 59.2 59.4166 59.4166 59.6308 59.6308 59.8426 59.8426 60.052 60.052 60.2589 60.2589 60.4635 60.4635 60.6656 60.6656 60.8653 60.8653 61.0627 61.0627 61.2576 61.2576 61.4501 61.4501 61.6402 61.6402 61.8279 61.8279 62.0131 62.0131 62.196 62.196 62.3764 62.3764 62.5545 62.5545 62.7301 62.7301 62.9033 62.9033 63.0742 63.0742 63.2426 63.2426 63.4086 63.4086 63.5722 63.5722 63.7333 63.7333 63.8921 63.8921 64.0485 64.0485 64.2024 64.2024 64.3539 64.3539 64.5031 64.5031 64.6498 64.6498 64.7941 64.7941 64.936 64.936 65.0755 65.0755 65.2126 65.2126 65.3473 65.3473 65.4795 65.4795 65.6094 65.6094 65.7368 65.7368 65.8618 65.8618 65.9845 65.9845 66.1047 66.1047 66.2225 66.2225 66.3379 66.3379 66.4509 66.4509 66.5615 66.5615 66.6697 66.6697 66.7754 66.7754 66.8788 66.8788 66.9798 66.9798 67.0784 67.0784 67.1745 67.1745 67.2683 67.2683 67.3596 67.3596 67.4486 67.4486 67.5352 67.5352 67.6194 67.6194 67.7012 67.7012 67.7807 67.7807 67.8577 67.8577 67.9324 67.9324 68.0047 68.0047 68.0746 68.0746 68.1422 68.1422 68.2074 68.2074 68.2703 68.2703 68.3307 68.3307 68.3888 68.3888 68.4444 68.4444 68.4976 68.4976 68.5485 68.5485 68.5971 68.5971 68.6432 68.6432 68.6871 68.6871 68.7286 68.7286 68.7679 68.7679 68.8051 68.8051 68.8406 68.8406 68.8743 68.8743 68.9065 68.9065 68.9373 68.9373 68.9668 68.9668 68.9952 68.9952 69.0225 69.0225 69.0488 69.0488 69.0741 69.0741 69.0984 69.0984 69.1218 69.1218 69.1442 69.1442 69.1658 69.1658 69.1864 69.1864 69.2061 69.2061 69.2249 69.2249 69.2427 69.2427 69.2595 69.2595 69.2753 69.2753 69.2901 69.2901 69.3038 69.3038 69.3166 69.3166 69.3283 69.3283 69.339 69.339 69.3486 69.3486 69.3573 69.3573 69.3648 69.3648 69.3713 69.3713 69.3767 69.3767 69.3803 69.3803 69.3815 
SCALARS x_coordinate double 1
LOOKUP_TABLE default
0 0.0490874 0.0490874 0.0981748 0.0981748 0.147262 0.147262 0.19635 0.19635 0.245437 0.245437 0.294524 0.294524 0.343612 0.343612 0.392699 0.392699 0.441786 0.441786 0.490874 0.490874 0.539961 0.539961 0.589049 0.589049 0.638136 0.638136 0.687223 0.687223 0.736311 0.736311 0.785398 0.785398 0.834486 0.834486 0.883573 0.883573 0.93266 0.93266 0.981748 0.981748 1.03084 1.03084 1.07992 1.07992 1.12901 1.12901 1.1781 1.1781 1.22718 1.22718 1.27627 1.27627 1.32536 1.32536 1.37445 1.37445 1.42353 1.42353 1.47262 1.47262 1.52171 1.52171 1.5708 1.5708 1.61988 1.61988 1.66897 1.66897 1.71806 1.71806 1.76715 1.76715 1.81623 1.81623 1.86532 1.86532 1.91441 1.91441 1.9635 1.9635 2.01258 2.01258 2.06167 2.06167 2.11076 2.11076 2.15984 2.15984 2.20893 2.20893 2.25802 2.25802 2.30711 2.30711 2.35619 2.35619 2.40528 2.40528 2.45437 2.45437 2.50346 2.50346 2.55254 2.55254 2.60163 2.60163 2.65072 2.65072 2.69981 2.69981 2.74889 2.74889 2.79798 2.79798 2.84707 2.84707 2.89616 2.89616 2.94524 2.94524 2.99433 2.99433 3.04342 3.04342 3.09251 3.09251 3.14159 3.14159 3.19068 3.19068 3.23977 3.23977 3.28885 3.28885 3.33794 3.33794 3.38703 3.38703 3.43612 3.43612 3.4852 3.4852 3.53429 3.53429 3.58338 3.58338 3.63247 3.63247 3.68155 3.68155 3.73064 3.73064 3.77973 3.77973 3.82882 3.82882 3.8779 3.8779 3.92699 3.92699 3.97608 3.97608 4.02517 4.02517 4.07425 4.07425 4.12334 4.12334 4.17243 4.17243 4.22152 4.22152 4.2706 4.2706 4.31969 4.31969 4.36878 4.36878 4.41786 4.41786 4.46695 4.46695 4.51604 4.51604 4.56513 4.56513 4.61421 4.61421 4.6633 4.6633 4.71239 4.71239 4.76148 4.76148 4.81056 4.81056 4.85965 4.85965 4.90874 4.90874 4.95783 4.95783 5.00691 5.00691 5.056 5.056 5.10509 5.10509 5.15418 5.15418 5.20326 5.20326 5.25235 5.25235 5.30144 5.30144 5.35052 5.35052 5.39961 5.39961 5.4487 5.4487 5.49779 5.49779 5.54687 5.54687 5.59596 5.59596 5.64505 5.64505 5.69414 5.69414 5.74322 5.74322 5.79231 5.79231 5.8414 5.8414 5.89049 5.89049 5.93957 5.93957 5.98866 5.98866 6.03775 6.03775 6.08684 6.08684 6.13592 6.13592 6.18501 6.18501 6.2341 6.2341 6.28319 6.28319 6.33227 6.33227 6.38136 6.38136 6.43045 6.43045 6.47953 6.47953 6.52862 6.52862 6.57771 6.57771 6.6268 6.6268 6.67588 6.67588 6.72497 6.72497 6.77406 6.77406 6.82315 6.82315 6.87223 6.87223 6.92132 6.92132 6.97041 6.97041 7.0195 7.0195 7.06858 7.06858 7.11767 7.11767 7.16676 7.16676 7.21585 7.21585 7.26493 7.26493 7.31402 7.31402 7.36311 7.36311 7.4122 7.4122 7.46128 7.46128 7.51037 7.51037 7.55946 7.55946 7.60854 7.60854 7.65763 7.65763 7.70672 7.70672 7.75581 7.75581 7.80489 7.80489 7.85398 7.85398 7.90307 7.90307 7.95216 7.95216 8.00124 8.00124 8.05033 8.05033 8.09942 8.09942 8.14851 8.14851 8.19759 8.19759 8.24668 8.24668 8.29577 8.29577 8.34486 8.34486 8.39394 8.39394 8.44303 8.44303 8.49212 8.49212 8.54121 8.54121 8.59029 8.59029 8.63938 8.63938 8.68847 8.68847 8.73755 8.73755 8.78664 8.78664 8.83573 8.83573 8.88482 8.88482 8.9339 8.9339 8.98299 8.98299 9.03208 9.03208 9.08117 9.08117 9.13025 9.13025 9.17934 9.17934 9.22843 9.22843 9.27752 9.27752 9.3266 9.3266 9.37569 9.37569 9.42478 9.42478 9.47387 9.47387 9.52295 9.52295 9.57204 9.57204 9.62113 9.62113 9.67021 9.67021 9.7193 9.7193 9.76839 9.76839 9.81748 9.81748 9.86656 9.86656 9.91565 9.91565 9.96474 9.96474 10.0138 10.0138 10.0629 10.0629 10.112 10.112 10.1611 10.1611 10.2102 10.2102 10.2593 10.2593 10.3084 10.3084 10.3574 10.3574 10.4065 10.4065 10.4556 10.4556 10.5047 10.5047 10.5538 10.5538 10.6029 10.6029 10.652 10.652 10.701 10.701 10.7501 10.7501 10.7992 10.7992 10.8483 10.8483 10.8974 10.8974 10.9465 10.9465 10.9956 10.9956 11.0447 11.0447 11.0937 11.0937 11.1428 11.1428 11.1919 11.1919 11.241 11.241 11.2901 11.2901 11.3392 11.3392 11.3883 11.3883 11.4374 11.4374 11.4864 11.4864 11.5355 11.5355 11.5846 11.5846 11.6337 11.6337 11.6828 11.6828 11.7319 11.7319 11.781 11.781 11.8301 11.8301 11.8791 11.8791 11.9282 11.9282 11.9773 11.9773 12.0264 12.0264 12.0755 12.0755 12.1246 12.1246 12.1737 12.1737 12.2228 12.2228 12.2718 12.2718 12.3209 12.3209 12.37 12.37 12.4191 12.4191 12.4682 12.4682 12.5173 12.5173 12.5664 
