# vtk DataFile Version 3.0
#This file was generated by the deal.II library on 2026/3/10 at 19:06:47
ASCII
DATASET UNSTRUCTURED_GRID

POINTS 512 double
0 0 0
0.0490874 0 0
0.0490874 0 0
0.0981748 0 0
0.0981748 0 0
0.147262 0 0
0.147262 0 0
0.19635 0 0
0.19635 0 0
0.245437 0 0
0.245437 0 0
0.294524 0 0
0.294524 0 0
0.343612 0 0
0.343612 0 0
0.392699 0 0
0.392699 0 0
0.441786 0 0
0.441786 0 0
0.490874 0 0
0.490874 0 0
0.539961 0 0
0.539961 0 0
0.589049 0 0
0.589049 0 0
0.638136 0 0
0.638136 0 0
0.687223 0 0
0.687223 0 0
0.736311 0 0
0.736311 0 0
0.785398 0 0
0.785398 0 0
0.834486 0 0
0.834486 0 0
0.883573 0 0
0.883573 0 0
0.93266 0 0
0.93266 0 0
0.981748 0 0
0.981748 0 0
1.03084 0 0
1.03084 0 0
1.07992 0 0
1.07992 0 0
1.12901 0 0
1.12901 0 0
1.1781 0 0
1.1781 0 0
1.22718 0 0
1.22718 0 0
1.27627 0 0
1.27627 0 0
1.32536 0 0
1.32536 0 0
1.37445 0 0
1.37445 0 0
1.42353 0 0
1.42353 0 0
1.47262 0 0
1.47262 0 0
1.52171 0 0
1.52171 0 0
1.5708 0 0
1.5708 0 0
1.61988 0 0
1.61988 0 0
1.66897 0 0
1.66897 0 0
1.71806 0 0
1.71806 0 0
1.76715 0 0
1.76715 0 0
1.81623 0 0
1.81623 0 0
1.86532 0 0
1.86532 0 0
1.91441 0 0
1.91441 0 0
1.9635 0 0
1.9635 0 0
2.01258 0 0
2.01258 0 0
2.06167 0 0
2.06167 0 0
2.11076 0 0
2.11076 0 0
2.15984 0 0
2.15984 0 0
2.20893 0 0
2.20893 0 0
2.25802 0 0
2.25802 0 0
2.30711 0 0
2.30711 0 0
2.35619 0 0
2.35619 0 0
2.40528 0 0
2.40528 0 0
2.45437 0 0
2.45437 0 0
2.50346 0 0
2.50346 0 0
2.55254 0 0
2.55254 0 0
2.60163 0 0
2.60163 0 0
2.65072 0 0
2.65072 0 0
2.69981 0 0
2.69981 0 0
2.74889 0 0
2.74889 0 0
2.79798 0 0
2.79798 0 0
2.84707 0 0
2.84707 0 0
2.89616 0 0
2.89616 0 0
2.94524 0 0
2.94524 0 0
2.99433 0 0
2.99433 0 0
3.04342 0 0
3.04342 0 0
3.09251 0 0
3.09251 0 0
3.14159 0 0
3.14159 0 0
3.19068 0 0
3.19068 0 0
3.23977 0 0
3.23977 0 0
3.28885 0 0
3.28885 0 0
3.33794 0 0
3.33794 0 0
3.38703 0 0
3.38703 0 0
3.43612 0 0
3.43612 0 0
3.4852 0 0
3.4852 0 0
3.53429 0 0
3.53429 0 0
3.58338 0 0
3.58338 0 0
3.63247 0 0
3.63247 0 0
3.68155 0 0
3.68155 0 0
3.73064 0 0
3.73064 0 0
3.77973 0 0
3.77973 0 0
3.82882 0 0
3.82882 0 0
3.8779 0 0
3.8779 0 0
3.92699 0 0
3.92699 0 0
3.97608 0 0
3.97608 0 0
4.02517 0 0
4.02517 0 0
4.07425 0 0
4.07425 0 0
4.12334 0 0
4.12334 0 0
4.17243 0 0
4.17243 0 0
4.22152 0 0
4.22152 0 0
4.2706 0 0
4.2706 0 0
4.31969 0 0
4.31969 0 0
4.36878 0 0
4.36878 0 0
4.41786 0 0
4.41786 0 0
4.46695 0 0
4.46695 0 0
4.51604 0 0
4.51604 0 0
4.56513 0 0
4.56513 0 0
4.61421 0 0
4.61421 0 0
4.6633 0 0
4.6633 0 0
4.71239 0 0
4.71239 0 0
4.76148 0 0
4.76148 0 0
4.81056 0 0
4.81056 0 0
4.85965 0 0
4.85965 0 0
4.90874 0 0
4.90874 0 0
4.95783 0 0
4.95783 0 0
5.00691 0 0
5.00691 0 0
5.056 0 0
5.056 0 0
5.10509 0 0
5.10509 0 0
5.15418 0 0
5.15418 0 0
5.20326 0 0
5.20326 0 0
5.25235 0 0
5.25235 0 0
5.30144 0 0
5.30144 0 0
5.35052 0 0
5.35052 0 0
5.39961 0 0
5.39961 0 0
5.4487 0 0
5.4487 0 0
5.49779 0 0
5.49779 0 0
5.54687 0 0
5.54687 0 0
5.59596 0 0
5.59596 0 0
5.64505 0 0
5.64505 0 0
5.69414 0 0
5.69414 0 0
5.74322 0 0
5.74322 0 0
5.79231 0 0
5.79231 0 0
5.8414 0 0
5.8414 0 0
5.89049 0 0
5.89049 0 0
5.93957 0 0
5.93957 0 0
5.98866 0 0
5.98866 0 0
6.03775 0 0
6.03775 0 0
6.08684 0 0
6.08684 0 0
6.13592 0 0
6.13592 0 0
6.18501 0 0
6.18501 0 0
6.2341 0 0
6.2341 0 0
6.28319 0 0
6.28319 0 0
6.33227 0 0
6.33227 0 0
6.38136 0 0
6.38136 0 0
6.43045 0 0
6.43045 0 0
6.47953 0 0
6.47953 0 0
6.52862 0 0
6.52862 0 0
6.57771 0 0
6.57771 0 0
6.6268 0 0
6.6268 0 0
6.67588 0 0
6.67588 0 0
6.72497 0 0
6.72497 0 0
6.77406 0 0
6.77406 0 0
6.82315 0 0
6.82315 0 0
6.87223 0 0
6.87223 0 0
6.92132 0 0
6.92132 0 0
6.97041 0 0
6.97041 0 0
7.0195 0 0
7.0195 0 0
7.06858 0 0
7.06858 0 0
7.11767 0 0
7.11767 0 0
7.16676 0 0
7.16676 0 0
7.21585 0 0
7.21585 0 0
7.26493 0 0
7.26493 0 0
7.31402 0 0
7.31402 0 0
7.36311 0 0
7.36311 0 0
7.4122 0 0
7.4122 0 0
7.46128 0 0
7.46128 0 0
7.51037 0 0
7.51037 0 0
7.55946 0 0
7.55946 0 0
7.60854 0 0
7.60854 0 0
7.65763 0 0
7.65763 0 0
7.70672 0 0
7.70672 0 0
7.75581 0 0
7.75581 0 0
7.80489 0 0
7.80489 0 0
7.85398 0 0
7.85398 0 0
7.90307 0 0
7.90307 0 0
7.95216 0 0
7.95216 0 0
8.00124 0 0
8.00124 0 0
8.05033 0 0
8.05033 0 0
8.09942 0 0
8.09942 0 0
8.14851 0 0
8.14851 0 0
8.19759 0 0
8.19759 0 0
8.24668 0 0
8.24668 0 0
8.29577 0 0
8.29577 0 0
8.34486 0 0
8.34486 0 0
8.39394 0 0
8.39394 0 0
8.44303 0 0
8.44303 0 0
8.49212 0 0
8.49212 0 0
8.54121 0 0
8.54121 0 0
8.59029 0 0
8.59029 0 0
8.63938 0 0
8.63938 0 0
8.68847 0 0
8.68847 0 0
8.73755 0 0
8.73755 0 0
8.78664 0 0
8.78664 0 0
8.83573 0 0
8.83573 0 0
8.88482 0 0
8.88482 0 0
8.9339 0 0
8.9339 0 0
8.98299 0 0
8.98299 0 0
9.03208 0 0
9.03208 0 0
9.08117 0 0
9.08117 0 0
9.13025 0 0
9.13025 0 0
9.17934 0 0
9.17934 0 0
9.22843 0 0
9.22843 0 0
9.27752 0 0
9.27752 0 0
9.3266 0 0
9.3266 0 0
9.37569 0 0
9.37569 0 0
9.42478 0 0
9.42478 0 0
9.47387 0 0
9.47387 0 0
9.52295 0 0
9.52295 0 0
9.57204 0 0
9.57204 0 0
9.62113 0 0
9.62113 0 0
9.67021 0 0
9.67021 0 0
9.7193 0 0
9.7193 0 0
9.76839 0 0
9.76839 0 0
9.81748 0 0
9.81748 0 0
9.86656 0 0
9.86656 0 0
9.91565 0 0
9.91565 0 0
9.96474 0 0
9.96474 0 0
10.0138 0 0
10.0138 0 0
10.0629 0 0
10.0629 0 0
10.112 0 0
10.112 0 0
10.1611 0 0
10.1611 0 0
10.2102 0 0
10.2102 0 0
10.2593 0 0
10.2593 0 0
10.3084 0 0
10.3084 0 0
10.3574 0 0
10.3574 0 0
10.4065 0 0
10.4065 0 0
10.4556 0 0
10.4556 0 0
10.5047 0 0
10.5047 0 0
10.5538 0 0
10.5538 0 0
10.6029 0 0
10.6029 0 0
10.652 0 0
10.652 0 0
10.701 0 0
10.701 0 0
10.7501 0 0
10.7501 0 0
10.7992 0 0
10.7992 0 0
10.8483 0 0
10.8483 0 0
10.8974 0 0
10.8974 0 0
10.9465 0 0
10.9465 0 0
10.9956 0 0
10.9956 0 0
11.0447 0 0
11.0447 0 0
11.0937 0 0
11.0937 0 0
11.1428 0 0
11.1428 0 0
11.1919 0 0
11.1919 0 0
11.241 0 0
11.241 0 0
11.2901 0 0
11.2901 0 0
11.3392 0 0
11.3392 0 0
11.3883 0 0
11.3883 0 0
11.4374 0 0
11.4374 0 0
11.4864 0 0
11.4864 0 0
11.5355 0 0
11.5355 0 0
11.5846 0 0
11.5846 0 0
11.6337 0 0
11.6337 0 0
11.6828 0 0
11.6828 0 0
11.7319 0 0
11.7319 0 0
11.781 0 0
11.781 0 0
11.8301 0 0
11.8301 0 0
11.8791 0 0
11.8791 0 0
11.9282 0 0
11.9282 0 0
11.9773 0 0
11.9773 0 0
12.0264 0 0
12.0264 0 0
12.0755 0 0
12.0755 0 0
12.1246 0 0
12.1246 0 0
12.1737 0 0
12.1737 0 0
12.2228 0 0
12.2228 0 0
12.2718 0 0
12.2718 0 0
12.3209 0 0
12.3209 0 0
12.37 0 0
12.37 0 0
12.4191 0 0
12.4191 0 0
12.4682 0 0
12.4682 0 0
12.5173 0 0
12.5173 0 0
12.5664 0 0

CELLS 256 768
2	0	1
2	2	3
2	4	5
2	6	7
2	8	9
2	10	11
2	12	13
2	14	15
2	16	17
2	18	19
2	20	21
2	22	23
2	24	25
2	26	27
2	28	29
2	30	31
2	32	33
2	34	35
2	36	37
2	38	39
2	40	41
2	42	43
2	44	45
2	46	47
2	48	49
2	50	51
2	52	53
2	54	55
2	56	57
2	58	59
2	60	61
2	62	63
2	64	65
2	66	67
2	68	69
2	70	71
2	72	73
2	74	75
2	76	77
2	78	79
2	80	81
2	82	83
2	84	85
2	86	87
2	88	89
2	90	91
2	92	93
2	94	95
2	96	97
2	98	99
2	100	101
2	102	103
2	104	105
2	106	107
2	108	109
2	110	111
2	112	113
2	114	115
2	116	117
2	118	119
2	120	121
2	122	123
2	124	125
2	126	127
2	128	129
2	130	131
2	132	133
2	134	135
2	136	137
2	138	139
2	140	141
2	142	143
2	144	145
2	146	147
2	148	149
2	150	151
2	152	153
2	154	155
2	156	157
2	158	159
2	160	161
2	162	163
2	164	165
2	166	167
2	168	169
2	170	171
2	172	173
2	174	175
2	176	177
2	178	179
2	180	181
2	182	183
2	184	185
2	186	187
2	188	189
2	190	191
2	192	193
2	194	195
2	196	197
2	198	199
2	200	201
2	202	203
2	204	205
2	206	207
2	208	209
2	210	211
2	212	213
2	214	215
2	216	217
2	218	219
2	220	221
2	222	223
2	224	225
2	226	227
2	228	229
2	230	231
2	232	233
2	234	235
2	236	237
2	238	239
2	240	241
2	242	243
2	244	245
2	246	247
2	248	249
2	250	251
2	252	253
2	254	255
2	256	257
2	258	259
2	260	261
2	262	263
2	264	265
2	266	267
2	268	269
2	270	271
2	272	273
2	274	275
2	276	277
2	278	279
2	280	281
2	282	283
2	284	285
2	286	287
2	288	289
2	290	291
2	292	293
2	294	295
2	296	297
2	298	299
2	300	301
2	302	303
2	304	305
2	306	307
2	308	309
2	310	311
2	312	313
2	314	315
2	316	317
2	318	319
2	320	321
2	322	323
2	324	325
2	326	327
2	328	329
2	330	331
2	332	333
2	334	335
2	336	337
2	338	339
2	340	341
2	342	343
2	344	345
2	346	347
2	348	349
2	350	351
2	352	353
2	354	355
2	356	357
2	358	359
2	360	361
2	362	363
2	364	365
2	366	367
2	368	369
2	370	371
2	372	373
2	374	375
2	376	377
2	378	379
2	380	381
2	382	383
2	384	385
2	386	387
2	388	389
2	390	391
2	392	393
2	394	395
2	396	397
2	398	399
2	400	401
2	402	403
2	404	405
2	406	407
2	408	409
2	410	411
2	412	413
2	414	415
2	416	417
2	418	419
2	420	421
2	422	423
2	424	425
2	426	427
2	428	429
2	430	431
2	432	433
2	434	435
2	436	437
2	438	439
2	440	441
2	442	443
2	444	445
2	446	447
2	448	449
2	450	451
2	452	453
2	454	455
2	456	457
2	458	459
2	460	461
2	462	463
2	464	465
2	466	467
2	468	469
2	470	471
2	472	473
2	474	475
2	476	477
2	478	479
2	480	481
2	482	483
2	484	485
2	486	487
2	488	489
2	490	491
2	492	493
2	494	495
2	496	497
2	498	499
2	500	501
2	502	503
2	504	505
2	506	507
2	508	509
2	510	511

CELL_TYPES 256
 3 3 3 3 3 3 3 3 3 3 3 3 3 3 3 3 3 3 3 3 3 3 3 3 3 3 3 3 3 3 3 3 3 3 3 3 3 3 3 3 3 3 3 3 3 3 3 3 3 3 3 3 3 3 3 3 3 3 3 3 3 3 3 3 3 3 3 3 3 3 3 3 3 3 3 3 3 3 3 3 3 3 3 3 3 3 3 3 3 3 3 3 3 3 3 3 3 3 3 3 3 3 3 3 3 3 3 3 3 3 3 3 3 3 3 3 3 3 3 3 3 3 3 3 3 3 3 3 3 3 3 3 3 3 3 3 3 3 3 3 3 3 3 3 3 3 3 3 3 3 3 3 3 3 3 3 3 3 3 3 3 3 3 3 3 3 3 3 3 3 3 3 3 3 3 3 3 3 3 3 3 3 3 3 3 3 3 3 3 3 3 3 3 3 3 3 3 3 3 3 3 3 3 3 3 3 3 3 3 3 3 3 3 3 3 3 3 3 3 3 3 3 3 3 3 3 3 3 3 3 3 3 3 3 3 3 3 3 3 3 3 3 3 3 3 3 3 3 3 3 3 3 3 3 3 3
POINT_DATA 512
VECTORS electric_field double
-12.2219 0 0
-12.1728 0 0
-12.1728 0 0
-12.1237 0 0
-12.1237 0 0
-12.0746 0 0
-12.0746 0 0
-12.0255 0 0
-12.0255 0 0
-11.9764 0 0
-11.9764 0 0
-11.9274 0 0
-11.9274 0 0
-11.8783 0 0
-11.8783 0 0
-11.8292 0 0
-11.8292 0 0
-11.7801 0 0
-11.7801 0 0
-11.731 0 0
-11.731 0 0
-11.6819 0 0
-11.6819 0 0
-11.6328 0 0
-11.6328 0 0
-11.5837 0 0
-11.5837 0 0
-11.5347 0 0
-11.5347 0 0
-11.4856 0 0
-11.4856 0 0
-11.4365 0 0
-11.4365 0 0
-11.3874 0 0
-11.3874 0 0
-11.3383 0 0
-11.3383 0 0
-11.2892 0 0
-11.2892 0 0
-11.2401 0 0
-11.2401 0 0
-11.191 0 0
-11.191 0 0
-11.142 0 0
-11.142 0 0
-11.0929 0 0
-11.0929 0 0
-11.0438 0 0
-11.0438 0 0
-10.9947 0 0
-10.9947 0 0
-10.9456 0 0
-10.9456 0 0
-10.8965 0 0
-10.8965 0 0
-10.8474 0 0
-10.8474 0 0
-10.7983 0 0
-10.7983 0 0
-10.7493 0 0
-10.7493 0 0
-10.7002 0 0
-10.7002 0 0
-10.6511 0 0
-10.6511 0 0
-10.602 0 0
-10.602 0 0
-10.5529 0 0
-10.5529 0 0
-10.5038 0 0
-10.5038 0 0
-10.4547 0 0
-10.4547 0 0
-10.4056 0 0
-10.4056 0 0
-10.3566 0 0
-10.3566 0 0
-10.3075 0 0
-10.3075 0 0
-10.2584 0 0
-10.2584 0 0
-10.2093 0 0
-10.2093 0 0
-10.1602 0 0
-10.1602 0 0
-10.1111 0 0
-10.1111 0 0
-10.062 0 0
-10.062 0 0
-10.0129 0 0
-10.0129 0 0
-9.96386 0 0
-9.96386 0 0
-9.91477 0 0
-9.91477 0 0
-9.86569 0 0
-9.86569 0 0
-9.8166 0 0
-9.8166 0 0
-9.76751 0 0
-9.76751 0 0
-9.71843 0 0
-9.71843 0 0
-9.66934 0 0
-9.66934 0 0
-9.62025 0 0
-9.62025 0 0
-9.57116 0 0
-9.57116 0 0
-9.52208 0 0
-9.52208 0 0
-9.47299 0 0
-9.47299 0 0
-9.4239 0 0
-9.4239 0 0
-9.37481 0 0
-9.37481 0 0
-9.32573 0 0
-9.32573 0 0
-9.27664 0 0
-9.27664 0 0
-9.22755 0 0
-9.22755 0 0
-9.17846 0 0
-9.17846 0 0
-9.12938 0 0
-9.12938 0 0
-9.08029 0 0
-9.08029 0 0
-9.0312 0 0
-9.0312 0 0
-8.98211 0 0
-8.98211 0 0
-8.93303 0 0
-8.93303 0 0
-8.88394 0 0
-8.88394 0 0
-8.83485 0 0
-8.83485 0 0
-8.78576 0 0
-8.78576 0 0
-8.73668 0 0
-8.73668 0 0
-8.68759 0 0
-8.68759 0 0
-8.6385 0 0
-8.6385 0 0
-8.58942 0 0
-8.58942 0 0
-8.54033 0 0
-8.54033 0 0
-8.49124 0 0
-8.49124 0 0
-8.44215 0 0
-8.44215 0 0
-8.39307 0 0
-8.39307 0 0
-8.34398 0 0
-8.34398 0 0
-8.29489 0 0
-8.29489 0 0
-8.2458 0 0
-8.2458 0 0
-8.19672 0 0
-8.19672 0 0
-8.14763 0 0
-8.14763 0 0
-8.09854 0 0
-8.09854 0 0
-8.04945 0 0
-8.04945 0 0
-8.00037 0 0
-8.00037 0 0
-7.95128 0 0
-7.95128 0 0
-7.90219 0 0
-7.90219 0 0
-7.8531 0 0
-7.8531 0 0
-7.80402 0 0
-7.80402 0 0
-7.75493 0 0
-7.75493 0 0
-7.70584 0 0
-7.70584 0 0
-7.65675 0 0
-7.65675 0 0
-7.60767 0 0
-7.60767 0 0
-7.55858 0 0
-7.55858 0 0
-7.50949 0 0
-7.50949 0 0
-7.46041 0 0
-7.46041 0 0
-7.41132 0 0
-7.41132 0 0
-7.36223 0 0
-7.36223 0 0
-7.31314 0 0
-7.31314 0 0
-7.26406 0 0
-7.26406 0 0
-7.21497 0 0
-7.21497 0 0
-7.16588 0 0
-7.16588 0 0
-7.11679 0 0
-7.11679 0 0
-7.06771 0 0
-7.06771 0 0
-7.01862 0 0
-7.01862 0 0
-6.96953 0 0
-6.96953 0 0
-6.92044 0 0
-6.92044 0 0
-6.87136 0 0
-6.87136 0 0
-6.82227 0 0
-6.82227 0 0
-6.77318 0 0
-6.77318 0 0
-6.72409 0 0
-6.72409 0 0
-6.67501 0 0
-6.67501 0 0
-6.62592 0 0
-6.62592 0 0
-6.57683 0 0
-6.57683 0 0
-6.52775 0 0
-6.52775 0 0
-6.47866 0 0
-6.47866 0 0
-6.42957 0 0
-6.42957 0 0
-6.38048 0 0
-6.38048 0 0
-6.3314 0 0
-6.3314 0 0
-6.28231 0 0
-6.28231 0 0
-6.23322 0 0
-6.23322 0 0
-6.18413 0 0
-6.18413 0 0
-6.13505 0 0
-6.13505 0 0
-6.08596 0 0
-6.08596 0 0
-6.03687 0 0
-6.03687 0 0
-5.98778 0 0
-5.98778 0 0
-5.9387 0 0
-5.9387 0 0
-5.88961 0 0
-5.88961 0 0
-5.84052 0 0
-5.84052 0 0
-5.79143 0 0
-5.79143 0 0
-5.74235 0 0
-5.74235 0 0
-5.69326 0 0
-5.69326 0 0
-5.64417 0 0
-5.64417 0 0
-5.59509 0 0
-5.59509 0 0
-5.546 0 0
-5.546 0 0
-5.49691 0 0
-5.49691 0 0
-5.44782 0 0
-5.44782 0 0
-5.39874 0 0
-5.39874 0 0
-5.34965 0 0
-5.34965 0 0
-5.30056 0 0
-5.30056 0 0
-5.25147 0 0
-5.25147 0 0
-5.20239 0 0
-5.20239 0 0
-5.1533 0 0
-5.1533 0 0
-5.10421 0 0
-5.10421 0 0
-5.05512 0 0
-5.05512 0 0
-5.00604 0 0
-5.00604 0 0
-4.95695 0 0
-4.95695 0 0
-4.90786 0 0
-4.90786 0 0
-4.85877 0 0
-4.85877 0 0
-4.80969 0 0
-4.80969 0 0
-4.7606 0 0
-4.7606 0 0
-4.71151 0 0
-4.71151 0 0
-4.66242 0 0
-4.66242 0 0
-4.61334 0 0
-4.61334 0 0
-4.56425 0 0
-4.56425 0 0
-4.51516 0 0
-4.51516 0 0
-4.46607 0 0
-4.46607 0 0
-4.41699 0 0
-4.41699 0 0
-4.3679 0 0
-4.3679 0 0
-4.31881 0 0
-4.31881 0 0
-4.26973 0 0
-4.26973 0 0
-4.22064 0 0
-4.22064 0 0
-4.17155 0 0
-4.17155 0 0
-4.12246 0 0
-4.12246 0 0
-4.07338 0 0
-4.07338 0 0
-4.02429 0 0
-4.02429 0 0
-3.9752 0 0
-3.9752 0 0
-3.92611 0 0
-3.92611 0 0
-3.87703 0 0
-3.87703 0 0
-3.82794 0 0
-3.82794 0 0
-3.77885 0 0
-3.77885 0 0
-3.72976 0 0
-3.72976 0 0
-3.68068 0 0
-3.68068 0 0
-3.63159 0 0
-3.63159 0 0
-3.5825 0 0
-3.5825 0 0
-3.53341 0 0
-3.53341 0 0
-3.48433 0 0
-3.48433 0 0
-3.43524 0 0
-3.43524 0 0
-3.38615 0 0
-3.38615 0 0
-3.33707 0 0
-3.33707 0 0
-3.28798 0 0
-3.28798 0 0
-3.23889 0 0
-3.23889 0 0
-3.1898 0 0
-3.1898 0 0
-3.14072 0 0
-3.14072 0 0
-3.09163 0 0
-3.09163 0 0
-3.04254 0 0
-3.04254 0 0
-2.99345 0 0
-2.99345 0 0
-2.94437 0 0
-2.94437 0 0
-2.89528 0 0
-2.89528 0 0
-2.84619 0 0
-2.84619 0 0
-2.7971 0 0
-2.7971 0 0
-2.74802 0 0
-2.74802 0 0
-2.69893 0 0
-2.69893 0 0
-2.64984 0 0
-2.64984 0 0
-2.60075 0 0
-2.60075 0 0
-2.55167 0 0
-2.55167 0 0
-2.50258 0 0
-2.50258 0 0
-2.45349 0 0
-2.45349 0 0
-2.4044 0 0
-2.4044 0 0
-2.35532 0 0
-2.35532 0 0
-2.30623 0 0
-2.30623 0 0
-2.25714 0 0
-2.25717 0 0
-2.20818 0 0
-2.2082 0 0
-2.15912 0 0
-2.15912 0 0
-2.11003 0 0
-2.11003 0 0
-2.06094 0 0
-2.06094 0 0
-2.01185 0 0
-2.01181 0 0
-1.96288 0 0
-1.96288 0 0
-1.91379 0 0
-1.91379 0 0
-1.86471 0 0
-1.86471 0 0
-1.81562 0 0
-1.81565 0 0
-1.76661 0 0
-1.7666 0 0
-1.71751 0 0
-1.71753 0 0
-1.66852 0 0
-1.66855 0 0
-1.61946 0 0
-1.61946 0 0
-1.57037 0 0
-1.57037 0 0
-1.52128 0 0
-1.52128 0 0
-1.4722 0 0
-1.4722 0 0
-1.42311 0 0
-1.42311 0 0
-1.37402 0 0
-1.37402 0 0
-1.32494 0 0
-1.32493 0 0
-1.27588 0 0
-1.27588 0 0
-1.2268 0 0
-1.2268 0 0
-1.17771 0 0
-1.17771 0 0
-1.12863 0 0
-1.12863 0 0
-1.07956 0 0
-1.07957 0 0
-1.03052 0 0
-1.03052 0 0
-0.981524 0 0
-0.98153 0 0
-0.932685 0 0
-0.932636 0 0
-0.884306 0 0
-0.884367 0 0
-0.836673 0 0
-0.836591 0 0
-0.790098 0 0
-0.790137 0 0
-0.74386 0 0
-0.743944 0 0
-0.698969 0 0
-0.699059 0 0
-0.655567 0 0
-0.655471 0 0
-0.61337 0 0
-0.613466 0 0
-0.572835 0 0
-0.572916 0 0
-0.533803 0 0
-0.533878 0 0
-0.496321 0 0
-0.496365 0 0
-0.460287 0 0
-0.460297 0 0
-0.425872 0 0
-0.425744 0 0
-0.393082 0 0
-0.393029 0 0
-0.360854 0 0
-0.360746 0 0
-0.329626 0 0
-0.329532 0 0
-0.300127 0 0
-0.300145 0 0
-0.271687 0 0
-0.271813 0 0
-0.244391 0 0
-0.24449 0 0
-0.218261 0 0
-0.218284 0 0
-0.193697 0 0
-0.193652 0 0
-0.16896 0 0
-0.168992 0 0
-0.144616 0 0
-0.144547 0 0
-0.12117 0 0
-0.121206 0 0
-0.0981771 0 0
-0.0981748 0 0
-0.0490874 0 0
-0.0490874 0 0
-3.27418e-11 0 0
SCALARS potential double 1
LOOKUP_TABLE default
0 0.598735 0.598735 1.19506 1.19506 1.78898 1.78898 2.38048 2.38048 2.96958 2.96958 3.55627 3.55627 4.14055 4.14055 4.72242 4.72242 5.30187 5.30187 5.87892 5.87892 6.45356 6.45356 7.02579 7.02579 7.59561 7.59561 8.16302 8.16302 8.72803 8.72803 9.29062 9.29062 9.8508 9.8508 10.4086 10.4086 10.9639 10.9639 11.5169 11.5169 12.0674 12.0674 12.6156 12.6156 13.1613 13.1613 13.7046 13.7046 14.2455 14.2455 14.784 14.784 15.3201 15.3201 15.8538 15.8538 16.385 16.385 16.9139 16.9139 17.4403 17.4403 17.9644 17.9644 18.486 18.486 19.0052 19.0052 19.522 19.522 20.0364 20.0364 20.5484 20.5484 21.058 21.058 21.5652 21.5652 22.07 22.07 22.5723 22.5723 23.0722 23.0722 23.5698 23.5698 24.0649 24.0649 24.5576 24.5576 25.0479 25.0479 25.5358 25.5358 26.0213 26.0213 26.5044 26.5044 26.985 26.985 27.4633 27.4633 27.9392 27.9392 28.4126 28.4126 28.8836 28.8836 29.3522 29.3522 29.8184 29.8184 30.2822 30.2822 30.7436 30.7436 31.2026 31.2026 31.6592 31.6592 32.1133 32.1133 32.5651 32.5651 33.0144 33.0144 33.4614 33.4614 33.9059 33.9059 34.348 34.348 34.7877 34.7877 35.225 35.225 35.6599 35.6599 36.0924 36.0924 36.5224 36.5224 36.9501 36.9501 37.3753 37.3753 37.7982 37.7982 38.2186 38.2186 38.6366 38.6366 39.0522 39.0522 39.4654 39.4654 39.8762 39.8762 40.2846 40.2846 40.6906 40.6906 41.0941 41.0941 41.4953 41.4953 41.894 41.894 42.2903 42.2903 42.6843 42.6843 43.0758 43.0758 43.4649 43.4649 43.8516 43.8516 44.2359 44.2359 44.6177 44.6177 44.9972 44.9972 45.3742 45.3742 45.7489 45.7489 46.1211 46.1211 46.491 46.491 46.8584 46.8584 47.2234 47.2234 47.586 47.586 47.9462 47.9462 48.3039 48.3039 48.6593 48.6593 49.0123 49.0123 49.3628 49.3628 49.711 49.711 50.0567 50.0567 50.4 50.4 50.7409 50.7409 51.0794 51.0794 51.4155 51.4155 51.7492 51.7492 52.0805 52.0805 52.4093 52.4093 52.7358 52.7358 53.0598 53.0598 53.3815 53.3815 53.7007 53.7007 54.0175 54.0175 54.3319 54.3319 54.6439 54.6439 54.9535 54.9535 55.2607 55.2607 55.5654 55.5654 55.8678 55.8678 56.1678 56.1678 56.4653 56.4653 56.7604 56.7604 57.0531 57.0531 57.3435 57.3435 57.6314 57.6314 57.9168 57.9168 58.1999 58.1999 58.4806 58.4806 58.7589 58.7589 59.0347 59.0347 59.3082 59.3082 59.5792 59.5792 59.8478 59.8478 60.114 60.114 60.3778 60.3778 60.6392 60.6392 60.8982 60.8982 61.1548 61.1548 61.409 61.409 61.6607 61.6607 61.9101 61.9101 62.157 62.157 62.4015 62.4015 62.6436 62.6436 62.8834 62.8834 63.1207 63.1207 63.3555 63.3555 63.588 63.588 63.8181 63.8181 64.0458 64.0458 64.271 64.271 64.4939 64.4939 64.7143 64.7143 64.9323 64.9323 65.1479 65.1479 65.3611 65.3611 65.5719 65.5719 65.7803 65.7803 65.9863 65.9863 66.1898 66.1898 66.391 66.391 66.5898 66.5898 66.7861 66.7861 66.98 66.98 67.1715 67.1715 67.3606 67.3606 67.5473 67.5473 67.7316 67.7316 67.9135 67.9135 68.093 68.093 68.27 68.27 68.4447 68.4447 68.6169 68.6169 68.7868 68.7868 68.9542 68.9542 69.1192 69.1192 69.2818 69.2818 69.442 69.442 69.5998 69.5998 69.7551 69.7551 69.9081 69.9081 70.0587 70.0587 70.2068 70.2068 70.3526 70.3526 70.4959 70.4959 70.6368 70.6368 70.7753 70.7753 70.9114 70.9114 71.0451 71.0451 71.1764 71.1764 71.3052 71.3052 71.4317 71.4317 71.5557 71.5557 71.6774 71.6774 71.7966 71.7966 71.9134 71.9134 72.0278 72.0278 72.1399 72.1399 72.2495 72.2495 72.3566 72.3566 72.4614 72.4614 72.5638 72.5638 72.6637 72.6637 72.7613 72.7613 72.8565 72.8565 72.9492 72.9492 73.0395 73.0395 73.1274 73.1274 73.213 73.213 73.2961 73.2961 73.3768 73.3768 73.4551 73.4551 73.5309 73.5309 73.6044 73.6044 73.6755 73.6755 73.7441 73.7441 73.8104 73.8104 73.8742 73.8742 73.9356 73.9356 73.9946 73.9946 74.0512 74.0512 74.1054 74.1054 74.1572 74.1572 74.2066 74.2066 74.2536 74.2536 74.2982 74.2982 74.3404 74.3404 74.3803 74.3803 74.418 74.418 74.4534 74.4534 74.4866 74.4866 74.5178 74.5178 74.5469 74.5469 74.574 74.574 74.5993 74.5993 74.6228 74.6228 74.6445 74.6445 74.6646 74.6646 74.6831 74.6831 74.7001 74.7001 74.7155 74.7155 74.7296 74.7296 74.7422 74.7422 74.7536 74.7536 74.7637 74.7637 74.7726 74.7726 74.7803 74.7803 74.7868 74.7868 74.7922 74.7922 74.7958 74.7958 74.797 
SCALARS x_coordinate double 1
LOOKUP_TABLE default
0 0.0490874 0.0490874 0.0981748 0.0981748 0.147262 0.147262 0.19635 0.19635 0.245437 0.245437 0.294524 0.294524 0.343612 0.343612 0.392699 0.392699 0.441786 0.441786 0.490874 0.490874 0.539961 0.539961 0.589049 0.589049 0.638136 0.638136 0.687223 0.687223 0.736311 0.736311 0.785398 0.785398 0.834486 0.834486 0.883573 0.883573 0.93266 0.93266 0.981748 0.981748 1.03084 1.03084 1.07992 1.07992 1.12901 1.12901 1.1781 1.1781 1.22718 1.22718 1.27627 1.27627 1.32536 1.32536 1.37445 1.37445 1.42353 1.42353 1.47262 1.47262 1.52171 1.52171 1.5708 1.5708 1.61988 1.61988 1.66897 1.66897 1.71806 1.71806 1.76715 1.76715 1.81623 1.81623 1.86532 1.86532 1.91441 1.91441 1.9635 1.9635 2.01258 2.01258 2.06167 2.06167 2.11076 2.11076 2.15984 2.15984 2.20893 2.20893 2.25802 2.25802 2.30711 2.30711 2.35619 2.35619 2.40528 2.40528 2.45437 2.45437 2.50346 2.50346 2.55254 2.55254 2.60163 2.60163 2.65072 2.65072 2.69981 2.69981 2.74889 2.74889 2.79798 2.79798 2.84707 2.84707 2.89616 2.89616 2.94524 2.94524 2.99433 2.99433 3.04342 3.04342 3.09251 3.09251 3.14159 3.14159 3.19068 3.19068 3.23977 3.23977 3.28885 3.28885 3.33794 3.33794 3.38703 3.38703 3.43612 3.43612 3.4852 3.4852 3.53429 3.53429 3.58338 3.58338 3.63247 3.63247 3.68155 3.68155 3.73064 3.73064 3.77973 3.77973 3.82882 3.82882 3.8779 3.8779 3.92699 3.92699 3.97608 3.97608 4.02517 4.02517 4.07425 4.07425 4.12334 4.12334 4.17243 4.17243 4.22152 4.22152 4.2706 4.2706 4.31969 4.31969 4.36878 4.36878 4.41786 4.41786 4.46695 4.46695 4.51604 4.51604 4.56513 4.56513 4.61421 4.61421 4.6633 4.6633 4.71239 4.71239 4.76148 4.76148 4.81056 4.81056 4.85965 4.85965 4.90874 4.90874 4.95783 4.95783 5.00691 5.00691 5.056 5.056 5.10509 5.10509 5.15418 5.15418 5.20326 5.20326 5.25235 5.25235 5.30144 5.30144 5.35052 5.35052 5.39961 5.39961 5.4487 5.4487 5.49779 5.49779 5.54687 5.54687 5.59596 5.59596 5.64505 5.64505 5.69414 5.69414 5.74322 5.74322 5.79231 5.79231 5.8414 5.8414 5.89049 5.89049 5.93957 5.93957 5.98866 5.98866 6.03775 6.03775 6.08684 6.08684 6.13592 6.13592 6.18501 6.18501 6.2341 6.2341 6.28319 6.28319 6.33227 6.33227 6.38136 6.38136 6.43045 6.43045 6.47953 6.47953 6.52862 6.52862 6.57771 6.57771 6.6268 6.6268 6.67588 6.67588 6.72497 6.72497 6.77406 6.77406 6.82315 6.82315 6.87223 6.87223 6.92132 6.92132 6.97041 6.97041 7.0195 7.0195 7.06858 7.06858 7.11767 7.11767 7.16676 7.16676 7.21585 7.21585 7.26493 7.26493 7.31402 7.31402 7.36311 7.36311 7.4122 7.4122 7.46128 7.46128 7.51037 7.51037 7.55946 7.55946 7.60854 7.60854 7.65763 7.65763 7.70672 7.70672 7.75581 7.75581 7.80489 7.80489 7.85398 7.85398 7.90307 7.90307 7.95216 7.95216 8.00124 8.00124 8.05033 8.05033 8.09942 8.09942 8.14851 8.14851 8.19759 8.19759 8.24668 8.24668 8.29577 8.29577 8.34486 8.34486 8.39394 8.39394 8.44303 8.44303 8.49212 8.49212 8.54121 8.54121 8.59029 8.59029 8.63938 8.63938 8.68847 8.68847 8.73755 8.73755 8.78664 8.78664 8.83573 8.83573 8.88482 8.88482 8.9339 8.9339 8.98299 8.98299 9.03208 9.03208 9.08117 9.08117 9.13025 9.13025 9.17934 9.17934 9.22843 9.22843 9.27752 9.27752 9.3266 9.3266 9.37569 9.37569 9.42478 9.42478 9.47387 9.47387 9.52295 9.52295 9.57204 9.57204 9.62113 9.62113 9.67021 9.67021 9.7193 9.7193 9.76839 9.76839 9.81748 9.81748 9.86656 9.86656 9.91565 9.91565 9.96474 9.96474 10.0138 10.0138 10.0629 10.0629 10.112 10.112 10.1611 10.1611 10.2102 10.2102 10.2593 10.2593 10.3084 10.3084 10.3574 10.3574 10.4065 10.4065 10.4556 10.4556 10.5047 10.5047 10.5538 10.5538 10.6029 10.6029 10.652 10.652 10.701 10.701 10.7501 10.7501 10.7992 10.7992 10.8483 10.8483 10.8974 10.8974 10.9465 10.9465 10.9956 10.9956 11.0447 11.0447 11.0937 11.0937 11.1428 11.1428 11.1919 11.1919 11.241 11.241 11.2901 11.2901 11.3392 11.3392 11.3883 11.3883 11.4374 11.4374 11.4864 11.4864 11.5355 11.5355 11.5846 11.5846 11.6337 11.6337 11.6828 11.6828 11.7319 11.7319 11.781 11.781 11.8301 11.8301 11.8791 11.8791 11.9282 11.9282 11.9773 11.9773 12.0264 12.0264 12.0755 12.0755 12.1246 12.1246 12.1737 12.1737 12.2228 12.2228 12.2718 12.2718 12.3209 12.3209 12.37 12.37 12.4191 12.4191 12.4682 12.4682 12.5173 12.5173 12.5664 
