# vtk DataFile Version 3.0
#This file was generated by the deal.II library on 2026/3/10 at 19:07:25
ASCII
DATASET UNSTRUCTURED_GRID

POINTS 512 double
0 0 0
0.0490874 0 0
0.0490874 0 0
0.0981748 0 0
0.0981748 0 0
0.147262 0 0
0.147262 0 0
0.19635 0 0
0.19635 0 0
0.245437 0 0
0.245437 0 0
0.294524 0 0
0.294524 0 0
0.343612 0 0
0.343612 0 0
0.392699 0 0
0.392699 0 0
0.441786 0 0
0.441786 0 0
0.490874 0 0
0.490874 0 0
0.539961 0 0
0.539961 0 0
0.589049 0 0
0.589049 0 0
0.638136 0 0
0.638136 0 0
0.687223 0 0
0.687223 0 0
0.736311 0 0
0.736311 0 0
0.785398 0 0
0.785398 0 0
0.834486 0 0
0.834486 0 0
0.883573 0 0
0.883573 0 0
0.93266 0 0
0.93266 0 0
0.981748 0 0
0.981748 0 0
1.03084 0 0
1.03084 0 0
1.07992 0 0
1.07992 0 0
1.12901 0 0
1.12901 0 0
1.1781 0 0
1.1781 0 0
1.22718 0 0
1.22718 0 0
1.27627 0 0
1.27627 0 0
1.32536 0 0
1.32536 0 0
1.37445 0 0
1.37445 0 0
1.42353 0 0
1.42353 0 0
1.47262 0 0
1.47262 0 0
1.52171 0 0
1.52171 0 0
1.5708 0 0
1.5708 0 0
1.61988 0 0
1.61988 0 0
1.66897 0 0
1.66897 0 0
1.71806 0 0
1.71806 0 0
1.76715 0 0
1.76715 0 0
1.81623 0 0
1.81623 0 0
1.86532 0 0
1.86532 0 0
1.91441 0 0
1.91441 0 0
1.9635 0 0
1.9635 0 0
2.01258 0 0
2.01258 0 0
2.06167 0 0
2.06167 0 0
2.11076 0 0
2.11076 0 0
2.15984 0 0
2.15984 0 0
2.20893 0 0
2.20893 0 0
2.25802 0 0
2.25802 0 0
2.30711 0 0
2.30711 0 0
2.35619 0 0
2.35619 0 0
2.40528 0 0
2.40528 0 0
2.45437 0 0
2.45437 0 0
2.50346 0 0
2.50346 0 0
2.55254 0 0
2.55254 0 0
2.60163 0 0
2.60163 0 0
2.65072 0 0
2.65072 0 0
2.69981 0 0
2.69981 0 0
2.74889 0 0
2.74889 0 0
2.79798 0 0
2.79798 0 0
2.84707 0 0
2.84707 0 0
2.89616 0 0
2.89616 0 0
2.94524 0 0
2.94524 0 0
2.99433 0 0
2.99433 0 0
3.04342 0 0
3.04342 0 0
3.09251 0 0
3.09251 0 0
3.14159 0 0
3.14159 0 0
3.19068 0 0
3.19068 0 0
3.23977 0 0
3.23977 0 0
3.28885 0 0
3.28885 0 0
3.33794 0 0
3.33794 0 0
3.38703 0 0
3.38703 0 0
3.43612 0 0
3.43612 0 0
3.4852 0 0
3.4852 0 0
3.53429 0 0
3.53429 0 0
3.58338 0 0
3.58338 0 0
3.63247 0 0
3.63247 0 0
3.68155 0 0
3.68155 0 0
3.73064 0 0
3.73064 0 0
3.77973 0 0
3.77973 0 0
3.82882 0 0
3.82882 0 0
3.8779 0 0
3.8779 0 0
3.92699 0 0
3.92699 0 0
3.97608 0 0
3.97608 0 0
4.02517 0 0
4.02517 0 0
4.07425 0 0
4.07425 0 0
4.12334 0 0
4.12334 0 0
4.17243 0 0
4.17243 0 0
4.22152 0 0
4.22152 0 0
4.2706 0 0
4.2706 0 0
4.31969 0 0
4.31969 0 0
4.36878 0 0
4.36878 0 0
4.41786 0 0
4.41786 0 0
4.46695 0 0
4.46695 0 0
4.51604 0 0
4.51604 0 0
4.56513 0 0
4.56513 0 0
4.61421 0 0
4.61421 0 0
4.6633 0 0
4.6633 0 0
4.71239 0 0
4.71239 0 0
4.76148 0 0
4.76148 0 0
4.81056 0 0
4.81056 0 0
4.85965 0 0
4.85965 0 0
4.90874 0 0
4.90874 0 0
4.95783 0 0
4.95783 0 0
5.00691 0 0
5.00691 0 0
5.056 0 0
5.056 0 0
5.10509 0 0
5.10509 0 0
5.15418 0 0
5.15418 0 0
5.20326 0 0
5.20326 0 0
5.25235 0 0
5.25235 0 0
5.30144 0 0
5.30144 0 0
5.35052 0 0
5.35052 0 0
5.39961 0 0
5.39961 0 0
5.4487 0 0
5.4487 0 0
5.49779 0 0
5.49779 0 0
5.54687 0 0
5.54687 0 0
5.59596 0 0
5.59596 0 0
5.64505 0 0
5.64505 0 0
5.69414 0 0
5.69414 0 0
5.74322 0 0
5.74322 0 0
5.79231 0 0
5.79231 0 0
5.8414 0 0
5.8414 0 0
5.89049 0 0
5.89049 0 0
5.93957 0 0
5.93957 0 0
5.98866 0 0
5.98866 0 0
6.03775 0 0
6.03775 0 0
6.08684 0 0
6.08684 0 0
6.13592 0 0
6.13592 0 0
6.18501 0 0
6.18501 0 0
6.2341 0 0
6.2341 0 0
6.28319 0 0
6.28319 0 0
6.33227 0 0
6.33227 0 0
6.38136 0 0
6.38136 0 0
6.43045 0 0
6.43045 0 0
6.47953 0 0
6.47953 0 0
6.52862 0 0
6.52862 0 0
6.57771 0 0
6.57771 0 0
6.6268 0 0
6.6268 0 0
6.67588 0 0
6.67588 0 0
6.72497 0 0
6.72497 0 0
6.77406 0 0
6.77406 0 0
6.82315 0 0
6.82315 0 0
6.87223 0 0
6.87223 0 0
6.92132 0 0
6.92132 0 0
6.97041 0 0
6.97041 0 0
7.0195 0 0
7.0195 0 0
7.06858 0 0
7.06858 0 0
7.11767 0 0
7.11767 0 0
7.16676 0 0
7.16676 0 0
7.21585 0 0
7.21585 0 0
7.26493 0 0
7.26493 0 0
7.31402 0 0
7.31402 0 0
7.36311 0 0
7.36311 0 0
7.4122 0 0
7.4122 0 0
7.46128 0 0
7.46128 0 0
7.51037 0 0
7.51037 0 0
7.55946 0 0
7.55946 0 0
7.60854 0 0
7.60854 0 0
7.65763 0 0
7.65763 0 0
7.70672 0 0
7.70672 0 0
7.75581 0 0
7.75581 0 0
7.80489 0 0
7.80489 0 0
7.85398 0 0
7.85398 0 0
7.90307 0 0
7.90307 0 0
7.95216 0 0
7.95216 0 0
8.00124 0 0
8.00124 0 0
8.05033 0 0
8.05033 0 0
8.09942 0 0
8.09942 0 0
8.14851 0 0
8.14851 0 0
8.19759 0 0
8.19759 0 0
8.24668 0 0
8.24668 0 0
8.29577 0 0
8.29577 0 0
8.34486 0 0
8.34486 0 0
8.39394 0 0
8.39394 0 0
8.44303 0 0
8.44303 0 0
8.49212 0 0
8.49212 0 0
8.54121 0 0
8.54121 0 0
8.59029 0 0
8.59029 0 0
8.63938 0 0
8.63938 0 0
8.68847 0 0
8.68847 0 0
8.73755 0 0
8.73755 0 0
8.78664 0 0
8.78664 0 0
8.83573 0 0
8.83573 0 0
8.88482 0 0
8.88482 0 0
8.9339 0 0
8.9339 0 0
8.98299 0 0
8.98299 0 0
9.03208 0 0
9.03208 0 0
9.08117 0 0
9.08117 0 0
9.13025 0 0
9.13025 0 0
9.17934 0 0
9.17934 0 0
9.22843 0 0
9.22843 0 0
9.27752 0 0
9.27752 0 0
9.3266 0 0
9.3266 0 0
9.37569 0 0
9.37569 0 0
9.42478 0 0
9.42478 0 0
9.47387 0 0
9.47387 0 0
9.52295 0 0
9.52295 0 0
9.57204 0 0
9.57204 0 0
9.62113 0 0
9.62113 0 0
9.67021 0 0
9.67021 0 0
9.7193 0 0
9.7193 0 0
9.76839 0 0
9.76839 0 0
9.81748 0 0
9.81748 0 0
9.86656 0 0
9.86656 0 0
9.91565 0 0
9.91565 0 0
9.96474 0 0
9.96474 0 0
10.0138 0 0
10.0138 0 0
10.0629 0 0
10.0629 0 0
10.112 0 0
10.112 0 0
10.1611 0 0
10.1611 0 0
10.2102 0 0
10.2102 0 0
10.2593 0 0
10.2593 0 0
10.3084 0 0
10.3084 0 0
10.3574 0 0
10.3574 0 0
10.4065 0 0
10.4065 0 0
10.4556 0 0
10.4556 0 0
10.5047 0 0
10.5047 0 0
10.5538 0 0
10.5538 0 0
10.6029 0 0
10.6029 0 0
10.652 0 0
10.652 0 0
10.701 0 0
10.701 0 0
10.7501 0 0
10.7501 0 0
10.7992 0 0
10.7992 0 0
10.8483 0 0
10.8483 0 0
10.8974 0 0
10.8974 0 0
10.9465 0 0
10.9465 0 0
10.9956 0 0
10.9956 0 0
11.0447 0 0
11.0447 0 0
11.0937 0 0
11.0937 0 0
11.1428 0 0
11.1428 0 0
11.1919 0 0
11.1919 0 0
11.241 0 0
11.241 0 0
11.2901 0 0
11.2901 0 0
11.3392 0 0
11.3392 0 0
11.3883 0 0
11.3883 0 0
11.4374 0 0
11.4374 0 0
11.4864 0 0
11.4864 0 0
11.5355 0 0
11.5355 0 0
11.5846 0 0
11.5846 0 0
11.6337 0 0
11.6337 0 0
11.6828 0 0
11.6828 0 0
11.7319 0 0
11.7319 0 0
11.781 0 0
11.781 0 0
11.8301 0 0
11.8301 0 0
11.8791 0 0
11.8791 0 0
11.9282 0 0
11.9282 0 0
11.9773 0 0
11.9773 0 0
12.0264 0 0
12.0264 0 0
12.0755 0 0
12.0755 0 0
12.1246 0 0
12.1246 0 0
12.1737 0 0
12.1737 0 0
12.2228 0 0
12.2228 0 0
12.2718 0 0
12.2718 0 0
12.3209 0 0
12.3209 0 0
12.37 0 0
12.37 0 0
12.4191 0 0
12.4191 0 0
12.4682 0 0
12.4682 0 0
12.5173 0 0
12.5173 0 0
12.5664 0 0

CELLS 256 768
2	0	1
2	2	3
2	4	5
2	6	7
2	8	9
2	10	11
2	12	13
2	14	15
2	16	17
2	18	19
2	20	21
2	22	23
2	24	25
2	26	27
2	28	29
2	30	31
2	32	33
2	34	35
2	36	37
2	38	39
2	40	41
2	42	43
2	44	45
2	46	47
2	48	49
2	50	51
2	52	53
2	54	55
2	56	57
2	58	59
2	60	61
2	62	63
2	64	65
2	66	67
2	68	69
2	70	71
2	72	73
2	74	75
2	76	77
2	78	79
2	80	81
2	82	83
2	84	85
2	86	87
2	88	89
2	90	91
2	92	93
2	94	95
2	96	97
2	98	99
2	100	101
2	102	103
2	104	105
2	106	107
2	108	109
2	110	111
2	112	113
2	114	115
2	116	117
2	118	119
2	120	121
2	122	123
2	124	125
2	126	127
2	128	129
2	130	131
2	132	133
2	134	135
2	136	137
2	138	139
2	140	141
2	142	143
2	144	145
2	146	147
2	148	149
2	150	151
2	152	153
2	154	155
2	156	157
2	158	159
2	160	161
2	162	163
2	164	165
2	166	167
2	168	169
2	170	171
2	172	173
2	174	175
2	176	177
2	178	179
2	180	181
2	182	183
2	184	185
2	186	187
2	188	189
2	190	191
2	192	193
2	194	195
2	196	197
2	198	199
2	200	201
2	202	203
2	204	205
2	206	207
2	208	209
2	210	211
2	212	213
2	214	215
2	216	217
2	218	219
2	220	221
2	222	223
2	224	225
2	226	227
2	228	229
2	230	231
2	232	233
2	234	235
2	236	237
2	238	239
2	240	241
2	242	243
2	244	245
2	246	247
2	248	249
2	250	251
2	252	253
2	254	255
2	256	257
2	258	259
2	260	261
2	262	263
2	264	265
2	266	267
2	268	269
2	270	271
2	272	273
2	274	275
2	276	277
2	278	279
2	280	281
2	282	283
2	284	285
2	286	287
2	288	289
2	290	291
2	292	293
2	294	295
2	296	297
2	298	299
2	300	301
2	302	303
2	304	305
2	306	307
2	308	309
2	310	311
2	312	313
2	314	315
2	316	317
2	318	319
2	320	321
2	322	323
2	324	325
2	326	327
2	328	329
2	330	331
2	332	333
2	334	335
2	336	337
2	338	339
2	340	341
2	342	343
2	344	345
2	346	347
2	348	349
2	350	351
2	352	353
2	354	355
2	356	357
2	358	359
2	360	361
2	362	363
2	364	365
2	366	367
2	368	369
2	370	371
2	372	373
2	374	375
2	376	377
2	378	379
2	380	381
2	382	383
2	384	385
2	386	387
2	388	389
2	390	391
2	392	393
2	394	395
2	396	397
2	398	399
2	400	401
2	402	403
2	404	405
2	406	407
2	408	409
2	410	411
2	412	413
2	414	415
2	416	417
2	418	419
2	420	421
2	422	423
2	424	425
2	426	427
2	428	429
2	430	431
2	432	433
2	434	435
2	436	437
2	438	439
2	440	441
2	442	443
2	444	445
2	446	447
2	448	449
2	450	451
2	452	453
2	454	455
2	456	457
2	458	459
2	460	461
2	462	463
2	464	465
2	466	467
2	468	469
2	470	471
2	472	473
2	474	475
2	476	477
2	478	479
2	480	481
2	482	483
2	484	485
2	486	487
2	488	489
2	490	491
2	492	493
2	494	495
2	496	497
2	498	499
2	500	501
2	502	503
2	504	505
2	506	507
2	508	509
2	510	511

CELL_TYPES 256
 3 3 3 3 3 3 3 3 3 3 3 3 3 3 3 3 3 3 3 3 3 3 3 3 3 3 3 3 3 3 3 3 3 3 3 3 3 3 3 3 3 3 3 3 3 3 3 3 3 3 3 3 3 3 3 3 3 3 3 3 3 3 3 3 3 3 3 3 3 3 3 3 3 3 3 3 3 3 3 3 3 3 3 3 3 3 3 3 3 3 3 3 3 3 3 3 3 3 3 3 3 3 3 3 3 3 3 3 3 3 3 3 3 3 3 3 3 3 3 3 3 3 3 3 3 3 3 3 3 3 3 3 3 3 3 3 3 3 3 3 3 3 3 3 3 3 3 3 3 3 3 3 3 3 3 3 3 3 3 3 3 3 3 3 3 3 3 3 3 3 3 3 3 3 3 3 3 3 3 3 3 3 3 3 3 3 3 3 3 3 3 3 3 3 3 3 3 3 3 3 3 3 3 3 3 3 3 3 3 3 3 3 3 3 3 3 3 3 3 3 3 3 3 3 3 3 3 3 3 3 3 3 3 3 3 3 3 3 3 3 3 3 3 3 3 3 3 3 3 3 3 3 3 3 3 3
POINT_DATA 512
VECTORS electric_field double
-12.5632 0 0
-12.5141 0 0
-12.5141 0 0
-12.465 0 0
-12.465 0 0
-12.4159 0 0
-12.4159 0 0
-12.3668 0 0
-12.3668 0 0
-12.3177 0 0
-12.3177 0 0
-12.2686 0 0
-12.2686 0 0
-12.2196 0 0
-12.2196 0 0
-12.1705 0 0
-12.1705 0 0
-12.1214 0 0
-12.1214 0 0
-12.0723 0 0
-12.0723 0 0
-12.0232 0 0
-12.0232 0 0
-11.9741 0 0
-11.9741 0 0
-11.925 0 0
-11.925 0 0
-11.8759 0 0
-11.8759 0 0
-11.8269 0 0
-11.8269 0 0
-11.7778 0 0
-11.7778 0 0
-11.7287 0 0
-11.7287 0 0
-11.6796 0 0
-11.6796 0 0
-11.6305 0 0
-11.6305 0 0
-11.5814 0 0
-11.5814 0 0
-11.5323 0 0
-11.5323 0 0
-11.4832 0 0
-11.4832 0 0
-11.4342 0 0
-11.4342 0 0
-11.3851 0 0
-11.3851 0 0
-11.336 0 0
-11.336 0 0
-11.2869 0 0
-11.2869 0 0
-11.2378 0 0
-11.2378 0 0
-11.1887 0 0
-11.1887 0 0
-11.1396 0 0
-11.1396 0 0
-11.0905 0 0
-11.0905 0 0
-11.0415 0 0
-11.0415 0 0
-10.9924 0 0
-10.9924 0 0
-10.9433 0 0
-10.9433 0 0
-10.8942 0 0
-10.8942 0 0
-10.8451 0 0
-10.8451 0 0
-10.796 0 0
-10.796 0 0
-10.7469 0 0
-10.7469 0 0
-10.6978 0 0
-10.6978 0 0
-10.6488 0 0
-10.6488 0 0
-10.5997 0 0
-10.5997 0 0
-10.5506 0 0
-10.5506 0 0
-10.5015 0 0
-10.5015 0 0
-10.4524 0 0
-10.4524 0 0
-10.4033 0 0
-10.4033 0 0
-10.3542 0 0
-10.3542 0 0
-10.3051 0 0
-10.3051 0 0
-10.2561 0 0
-10.2561 0 0
-10.207 0 0
-10.207 0 0
-10.1579 0 0
-10.1579 0 0
-10.1088 0 0
-10.1088 0 0
-10.0597 0 0
-10.0597 0 0
-10.0106 0 0
-10.0106 0 0
-9.96153 0 0
-9.96153 0 0
-9.91244 0 0
-9.91244 0 0
-9.86336 0 0
-9.86336 0 0
-9.81427 0 0
-9.81427 0 0
-9.76518 0 0
-9.76518 0 0
-9.71609 0 0
-9.71609 0 0
-9.66701 0 0
-9.66701 0 0
-9.61792 0 0
-9.61792 0 0
-9.56883 0 0
-9.56883 0 0
-9.51974 0 0
-9.51974 0 0
-9.47066 0 0
-9.47066 0 0
-9.42157 0 0
-9.42157 0 0
-9.37248 0 0
-9.37248 0 0
-9.32339 0 0
-9.32339 0 0
-9.27431 0 0
-9.27431 0 0
-9.22522 0 0
-9.22522 0 0
-9.17613 0 0
-9.17613 0 0
-9.12704 0 0
-9.12704 0 0
-9.07796 0 0
-9.07796 0 0
-9.02887 0 0
-9.02887 0 0
-8.97978 0 0
-8.97978 0 0
-8.9307 0 0
-8.9307 0 0
-8.88161 0 0
-8.88161 0 0
-8.83252 0 0
-8.83252 0 0
-8.78343 0 0
-8.78343 0 0
-8.73435 0 0
-8.73435 0 0
-8.68526 0 0
-8.68526 0 0
-8.63617 0 0
-8.63617 0 0
-8.58708 0 0
-8.58708 0 0
-8.538 0 0
-8.538 0 0
-8.48891 0 0
-8.48891 0 0
-8.43982 0 0
-8.43982 0 0
-8.39073 0 0
-8.39073 0 0
-8.34165 0 0
-8.34165 0 0
-8.29256 0 0
-8.29256 0 0
-8.24347 0 0
-8.24347 0 0
-8.19438 0 0
-8.19438 0 0
-8.1453 0 0
-8.1453 0 0
-8.09621 0 0
-8.09621 0 0
-8.04712 0 0
-8.04712 0 0
-7.99803 0 0
-7.99803 0 0
-7.94895 0 0
-7.94895 0 0
-7.89986 0 0
-7.89986 0 0
-7.85077 0 0
-7.85077 0 0
-7.80169 0 0
-7.80169 0 0
-7.7526 0 0
-7.7526 0 0
-7.70351 0 0
-7.70351 0 0
-7.65442 0 0
-7.65442 0 0
-7.60534 0 0
-7.60534 0 0
-7.55625 0 0
-7.55625 0 0
-7.50716 0 0
-7.50716 0 0
-7.45807 0 0
-7.45807 0 0
-7.40899 0 0
-7.40899 0 0
-7.3599 0 0
-7.3599 0 0
-7.31081 0 0
-7.31081 0 0
-7.26172 0 0
-7.26172 0 0
-7.21264 0 0
-7.21264 0 0
-7.16355 0 0
-7.16355 0 0
-7.11446 0 0
-7.11446 0 0
-7.06537 0 0
-7.06537 0 0
-7.01629 0 0
-7.01629 0 0
-6.9672 0 0
-6.9672 0 0
-6.91811 0 0
-6.91811 0 0
-6.86902 0 0
-6.86902 0 0
-6.81994 0 0
-6.81994 0 0
-6.77085 0 0
-6.77085 0 0
-6.72176 0 0
-6.72176 0 0
-6.67268 0 0
-6.67268 0 0
-6.62359 0 0
-6.62359 0 0
-6.5745 0 0
-6.5745 0 0
-6.52541 0 0
-6.52541 0 0
-6.47633 0 0
-6.47633 0 0
-6.42724 0 0
-6.42724 0 0
-6.37815 0 0
-6.37815 0 0
-6.32906 0 0
-6.32906 0 0
-6.27998 0 0
-6.27998 0 0
-6.23089 0 0
-6.23089 0 0
-6.1818 0 0
-6.1818 0 0
-6.13271 0 0
-6.13271 0 0
-6.08363 0 0
-6.08363 0 0
-6.03454 0 0
-6.03454 0 0
-5.98545 0 0
-5.98545 0 0
-5.93636 0 0
-5.93636 0 0
-5.88728 0 0
-5.88728 0 0
-5.83819 0 0
-5.83819 0 0
-5.7891 0 0
-5.7891 0 0
-5.74002 0 0
-5.74002 0 0
-5.69093 0 0
-5.69093 0 0
-5.64184 0 0
-5.64184 0 0
-5.59275 0 0
-5.59275 0 0
-5.54367 0 0
-5.54367 0 0
-5.49458 0 0
-5.49458 0 0
-5.44549 0 0
-5.44549 0 0
-5.3964 0 0
-5.3964 0 0
-5.34732 0 0
-5.34732 0 0
-5.29823 0 0
-5.29823 0 0
-5.24914 0 0
-5.24914 0 0
-5.20005 0 0
-5.20005 0 0
-5.15097 0 0
-5.15097 0 0
-5.10188 0 0
-5.10188 0 0
-5.05279 0 0
-5.05279 0 0
-5.0037 0 0
-5.0037 0 0
-4.95462 0 0
-4.95462 0 0
-4.90553 0 0
-4.90553 0 0
-4.85644 0 0
-4.85644 0 0
-4.80735 0 0
-4.80735 0 0
-4.75827 0 0
-4.75827 0 0
-4.70918 0 0
-4.70918 0 0
-4.66009 0 0
-4.66009 0 0
-4.61101 0 0
-4.61101 0 0
-4.56192 0 0
-4.56192 0 0
-4.51283 0 0
-4.51283 0 0
-4.46374 0 0
-4.46374 0 0
-4.41466 0 0
-4.41466 0 0
-4.36557 0 0
-4.36557 0 0
-4.31648 0 0
-4.31648 0 0
-4.26739 0 0
-4.26739 0 0
-4.21831 0 0
-4.21831 0 0
-4.16922 0 0
-4.16922 0 0
-4.12013 0 0
-4.12013 0 0
-4.07104 0 0
-4.07104 0 0
-4.02196 0 0
-4.02196 0 0
-3.97287 0 0
-3.97287 0 0
-3.92378 0 0
-3.92378 0 0
-3.87469 0 0
-3.87469 0 0
-3.82561 0 0
-3.82561 0 0
-3.77652 0 0
-3.77652 0 0
-3.72743 0 0
-3.72743 0 0
-3.67834 0 0
-3.67834 0 0
-3.62926 0 0
-3.62926 0 0
-3.58017 0 0
-3.58017 0 0
-3.53108 0 0
-3.53108 0 0
-3.482 0 0
-3.482 0 0
-3.43291 0 0
-3.43291 0 0
-3.38382 0 0
-3.38382 0 0
-3.33473 0 0
-3.33473 0 0
-3.28565 0 0
-3.28565 0 0
-3.23656 0 0
-3.23656 0 0
-3.18747 0 0
-3.18747 0 0
-3.13838 0 0
-3.13838 0 0
-3.0893 0 0
-3.0893 0 0
-3.04021 0 0
-3.04021 0 0
-2.99112 0 0
-2.99112 0 0
-2.94203 0 0
-2.94203 0 0
-2.89295 0 0
-2.89295 0 0
-2.84386 0 0
-2.84386 0 0
-2.79477 0 0
-2.79477 0 0
-2.74568 0 0
-2.74568 0 0
-2.6966 0 0
-2.6966 0 0
-2.64752 0 0
-2.64752 0 0
-2.59843 0 0
-2.59843 0 0
-2.54935 0 0
-2.54935 0 0
-2.50026 0 0
-2.50026 0 0
-2.45117 0 0
-2.45117 0 0
-2.40208 0 0
-2.40208 0 0
-2.353 0 0
-2.353 0 0
-2.30391 0 0
-2.30391 0 0
-2.25482 0 0
-2.25482 0 0
-2.20573 0 0
-2.20573 0 0
-2.15665 0 0
-2.15665 0 0
-2.10756 0 0
-2.10756 0 0
-2.05847 0 0
-2.05847 0 0
-2.00938 0 0
-2.00938 0 0
-1.9603 0 0
-1.9603 0 0
-1.91121 0 0
-1.91121 0 0
-1.86212 0 0
-1.86212 0 0
-1.81303 0 0
-1.81303 0 0
-1.76395 0 0
-1.76395 0 0
-1.71486 0 0
-1.71486 0 0
-1.66577 0 0
-1.66577 0 0
-1.61668 0 0
-1.61668 0 0
-1.5676 0 0
-1.5676 0 0
-1.51852 0 0
-1.51852 0 0
-1.46943 0 0
-1.46943 0 0
-1.42034 0 0
-1.42034 0 0
-1.37126 0 0
-1.37126 0 0
-1.32217 0 0
-1.32217 0 0
-1.27308 0 0
-1.27308 0 0
-1.22399 0 0
-1.22399 0 0
-1.17491 0 0
-1.17491 0 0
-1.12582 0 0
-1.12582 0 0
-1.07673 0 0
-1.07673 0 0
-1.02764 0 0
-1.02764 0 0
-0.978556 0 0
-0.978556 0 0
-0.929469 0 0
-0.929469 0 0
-0.880382 0 0
-0.880382 0 0
-0.831294 0 0
-0.831294 0 0
-0.782208 0 0
-0.782209 0 0
-0.733125 0 0
-0.733126 0 0
-0.684041 0 0
-0.684043 0 0
-0.634957 0 0
-0.634958 0 0
-0.585878 0 0
-0.585879 0 0
-0.536792 0 0
-0.536791 0 0
-0.487725 0 0
-0.487726 0 0
-0.438644 0 0
-0.438644 0 0
-0.389603 0 0
-0.389603 0 0
-0.340565 0 0
-0.340564 0 0
-0.291635 0 0
-0.291646 0 0
-0.242965 0 0
-0.24294 0 0
-0.194357 0 0
-0.194357 0 0
-0.146057 0 0
-0.146057 0 0
-0.0981741 0 0
-0.0981748 0 0
-0.0490874 0 0
-0.0490874 0 0
-2.91038e-11 0 0
SCALARS potential double 1
LOOKUP_TABLE default
0 0.615488 0.615488 1.22857 1.22857 1.83924 1.83924 2.44749 2.44749 3.05334 3.05334 3.65678 3.65678 4.25781 4.25781 4.85644 4.85644 5.45265 5.45265 6.04645 6.04645 6.63784 6.63784 7.22682 7.22682 7.8134 7.8134 8.39756 8.39756 8.97931 8.97931 9.55866 9.55866 10.1356 10.1356 10.7101 10.7101 11.2822 11.2822 11.8519 11.8519 12.4192 12.4192 12.9841 12.9841 13.5466 13.5466 14.1067 14.1067 14.6643 14.6643 15.2196 15.2196 15.7724 15.7724 16.3228 16.3228 16.8709 16.8709 17.4165 17.4165 17.9597 17.9597 18.5005 18.5005 19.0388 19.0388 19.5748 19.5748 20.1084 20.1084 20.6395 20.6395 21.1683 21.1683 21.6946 21.6946 22.2185 22.2185 22.7401 22.7401 23.2592 23.2592 23.7759 23.7759 24.2901 24.2901 24.802 24.802 25.3115 25.3115 25.8185 25.8185 26.3232 26.3232 26.8254 26.8254 27.3253 27.3253 27.8227 27.8227 28.3177 28.3177 28.8103 28.8103 29.3005 29.3005 29.7883 29.7883 30.2736 30.2736 30.7566 30.7566 31.2371 31.2371 31.7153 31.7153 32.191 32.191 32.6643 32.6643 33.1353 33.1353 33.6038 33.6038 34.0699 34.0699 34.5335 34.5335 34.9948 34.9948 35.4537 35.4537 35.9101 35.9101 36.3642 36.3642 36.8158 36.8158 37.265 37.265 37.7119 37.7119 38.1563 38.1563 38.5983 38.5983 39.0379 39.0379 39.475 39.475 39.9098 39.9098 40.3422 40.3422 40.7721 40.7721 41.1997 41.1997 41.6248 41.6248 42.0475 42.0475 42.4678 42.4678 42.8857 42.8857 43.3012 43.3012 43.7143 43.7143 44.125 44.125 44.5332 44.5332 44.9391 44.9391 45.3425 45.3425 45.7436 45.7436 46.1422 46.1422 46.5384 46.5384 46.9322 46.9322 47.3236 47.3236 47.7126 47.7126 48.0992 48.0992 48.4834 48.4834 48.8651 48.8651 49.2445 49.2445 49.6214 49.6214 49.9959 49.9959 50.3681 50.3681 50.7378 50.7378 51.1051 51.1051 51.47 51.47 51.8325 51.8325 52.1925 52.1925 52.5502 52.5502 52.9055 52.9055 53.2583 53.2583 53.6087 53.6087 53.9568 53.9568 54.3024 54.3024 54.6456 54.6456 54.9864 54.9864 55.3248 55.3248 55.6607 55.6607 55.9943 55.9943 56.3255 56.3255 56.6542 56.6542 56.9806 56.9806 57.3045 57.3045 57.626 57.626 57.9451 57.9451 58.2618 58.2618 58.5761 58.5761 58.888 58.888 59.1975 59.1975 59.5045 59.5045 59.8092 59.8092 60.1114 60.1114 60.4113 60.4113 60.7087 60.7087 61.0037 61.0037 61.2963 61.2963 61.5865 61.5865 61.8743 61.8743 62.1597 62.1597 62.4426 62.4426 62.7232 62.7232 63.0013 63.0013 63.2771 63.2771 63.5504 63.5504 63.8213 63.8213 64.0898 64.0898 64.3559 64.3559 64.6196 64.6196 64.8809 64.8809 65.1398 65.1398 65.3962 65.3962 65.6503 65.6503 65.9019 65.9019 66.1512 66.1512 66.398 66.398 66.6424 66.6424 66.8844 66.8844 67.124 67.124 67.3612 67.3612 67.596 67.596 67.8283 67.8283 68.0583 68.0583 68.2858 68.2858 68.511 68.511 68.7337 68.7337 68.954 68.954 69.1719 69.1719 69.3874 69.3874 69.6005 69.6005 69.8112 69.8112 70.0195 70.0195 70.2253 70.2253 70.4288 70.4288 70.6298 70.6298 70.8284 70.8284 71.0247 71.0247 71.2185 71.2185 71.4099 71.4099 71.5989 71.5989 71.7855 71.7855 71.9696 71.9696 72.1514 72.1514 72.3308 72.3308 72.5077 72.5077 72.6822 72.6822 72.8544 72.8544 73.0241 73.0241 73.1914 73.1914 73.3563 73.3563 73.5188 73.5188 73.6789 73.6789 73.8365 73.8365 73.9918 73.9918 74.1446 74.1446 74.2951 74.2951 74.4431 74.4431 74.5887 74.5887 74.7319 74.7319 74.8727 74.8727 75.0111 75.0111 75.1471 75.1471 75.2807 75.2807 75.4119 75.4119 75.5406 75.5406 75.667 75.667 75.7909 75.7909 75.9124 75.9124 76.0315 76.0315 76.1482 76.1482 76.2625 76.2625 76.3744 76.3744 76.4839 76.4839 76.591 76.591 76.6956 76.6956 76.7979 76.7979 76.8977 76.8977 76.9952 76.9952 77.0902 77.0902 77.1828 77.1828 77.273 77.273 77.3608 77.3608 77.4462 77.4462 77.5291 77.5291 77.6097 77.6097 77.6879 77.6879 77.7636 77.7636 77.8369 77.8369 77.9079 77.9079 77.9764 77.9764 78.0425 78.0425 78.1062 78.1062 78.1675 78.1675 78.2263 78.2263 78.2828 78.2828 78.3369 78.3369 78.3885 78.3885 78.4378 78.4378 78.4846 78.4846 78.529 78.529 78.571 78.571 78.6106 78.6106 78.6478 78.6478 78.6826 78.6826 78.715 78.715 78.7449 78.7449 78.7725 78.7725 78.7976 78.7976 78.8204 78.8204 78.8407 78.8407 78.8586 78.8586 78.8741 78.8741 78.8873 78.8873 78.898 78.898 78.9063 78.9063 78.9123 78.9123 78.916 78.916 78.9172 
SCALARS x_coordinate double 1
LOOKUP_TABLE default
0 0.0490874 0.0490874 0.0981748 0.0981748 0.147262 0.147262 0.19635 0.19635 0.245437 0.245437 0.294524 0.294524 0.343612 0.343612 0.392699 0.392699 0.441786 0.441786 0.490874 0.490874 0.539961 0.539961 0.589049 0.589049 0.638136 0.638136 0.687223 0.687223 0.736311 0.736311 0.785398 0.785398 0.834486 0.834486 0.883573 0.883573 0.93266 0.93266 0.981748 0.981748 1.03084 1.03084 1.07992 1.07992 1.12901 1.12901 1.1781 1.1781 1.22718 1.22718 1.27627 1.27627 1.32536 1.32536 1.37445 1.37445 1.42353 1.42353 1.47262 1.47262 1.52171 1.52171 1.5708 1.5708 1.61988 1.61988 1.66897 1.66897 1.71806 1.71806 1.76715 1.76715 1.81623 1.81623 1.86532 1.86532 1.91441 1.91441 1.9635 1.9635 2.01258 2.01258 2.06167 2.06167 2.11076 2.11076 2.15984 2.15984 2.20893 2.20893 2.25802 2.25802 2.30711 2.30711 2.35619 2.35619 2.40528 2.40528 2.45437 2.45437 2.50346 2.50346 2.55254 2.55254 2.60163 2.60163 2.65072 2.65072 2.69981 2.69981 2.74889 2.74889 2.79798 2.79798 2.84707 2.84707 2.89616 2.89616 2.94524 2.94524 2.99433 2.99433 3.04342 3.04342 3.09251 3.09251 3.14159 3.14159 3.19068 3.19068 3.23977 3.23977 3.28885 3.28885 3.33794 3.33794 3.38703 3.38703 3.43612 3.43612 3.4852 3.4852 3.53429 3.53429 3.58338 3.58338 3.63247 3.63247 3.68155 3.68155 3.73064 3.73064 3.77973 3.77973 3.82882 3.82882 3.8779 3.8779 3.92699 3.92699 3.97608 3.97608 4.02517 4.02517 4.07425 4.07425 4.12334 4.12334 4.17243 4.17243 4.22152 4.22152 4.2706 4.2706 4.31969 4.31969 4.36878 4.36878 4.41786 4.41786 4.46695 4.46695 4.51604 4.51604 4.56513 4.56513 4.61421 4.61421 4.6633 4.6633 4.71239 4.71239 4.76148 4.76148 4.81056 4.81056 4.85965 4.85965 4.90874 4.90874 4.95783 4.95783 5.00691 5.00691 5.056 5.056 5.10509 5.10509 5.15418 5.15418 5.20326 5.20326 5.25235 5.25235 5.30144 5.30144 5.35052 5.35052 5.39961 5.39961 5.4487 5.4487 5.49779 5.49779 5.54687 5.54687 5.59596 5.59596 5.64505 5.64505 5.69414 5.69414 5.74322 5.74322 5.79231 5.79231 5.8414 5.8414 5.89049 5.89049 5.93957 5.93957 5.98866 5.98866 6.03775 6.03775 6.08684 6.08684 6.13592 6.13592 6.18501 6.18501 6.2341 6.2341 6.28319 6.28319 6.33227 6.33227 6.38136 6.38136 6.43045 6.43045 6.47953 6.47953 6.52862 6.52862 6.57771 6.57771 6.6268 6.6268 6.67588 6.67588 6.72497 6.72497 6.77406 6.77406 6.82315 6.82315 6.87223 6.87223 6.92132 6.92132 6.97041 6.97041 7.0195 7.0195 7.06858 7.06858 7.11767 7.11767 7.16676 7.16676 7.21585 7.21585 7.26493 7.26493 7.31402 7.31402 7.36311 7.36311 7.4122 7.4122 7.46128 7.46128 7.51037 7.51037 7.55946 7.55946 7.60854 7.60854 7.65763 7.65763 7.70672 7.70672 7.75581 7.75581 7.80489 7.80489 7.85398 7.85398 7.90307 7.90307 7.95216 7.95216 8.00124 8.00124 8.05033 8.05033 8.09942 8.09942 8.14851 8.14851 8.19759 8.19759 8.24668 8.24668 8.29577 8.29577 8.34486 8.34486 8.39394 8.39394 8.44303 8.44303 8.49212 8.49212 8.54121 8.54121 8.59029 8.59029 8.63938 8.63938 8.68847 8.68847 8.73755 8.73755 8.78664 8.78664 8.83573 8.83573 8.88482 8.88482 8.9339 8.9339 8.98299 8.98299 9.03208 9.03208 9.08117 9.08117 9.13025 9.13025 9.17934 9.17934 9.22843 9.22843 9.27752 9.27752 9.3266 9.3266 9.37569 9.37569 9.42478 9.42478 9.47387 9.47387 9.52295 9.52295 9.57204 9.57204 9.62113 9.62113 9.67021 9.67021 9.7193 9.7193 9.76839 9.76839 9.81748 9.81748 9.86656 9.86656 9.91565 9.91565 9.96474 9.96474 10.0138 10.0138 10.0629 10.0629 10.112 10.112 10.1611 10.1611 10.2102 10.2102 10.2593 10.2593 10.3084 10.3084 10.3574 10.3574 10.4065 10.4065 10.4556 10.4556 10.5047 10.5047 10.5538 10.5538 10.6029 10.6029 10.652 10.652 10.701 10.701 10.7501 10.7501 10.7992 10.7992 10.8483 10.8483 10.8974 10.8974 10.9465 10.9465 10.9956 10.9956 11.0447 11.0447 11.0937 11.0937 11.1428 11.1428 11.1919 11.1919 11.241 11.241 11.2901 11.2901 11.3392 11.3392 11.3883 11.3883 11.4374 11.4374 11.4864 11.4864 11.5355 11.5355 11.5846 11.5846 11.6337 11.6337 11.6828 11.6828 11.7319 11.7319 11.781 11.781 11.8301 11.8301 11.8791 11.8791 11.9282 11.9282 11.9773 11.9773 12.0264 12.0264 12.0755 12.0755 12.1246 12.1246 12.1737 12.1737 12.2228 12.2228 12.2718 12.2718 12.3209 12.3209 12.37 12.37 12.4191 12.4191 12.4682 12.4682 12.5173 12.5173 12.5664 
