# vtk DataFile Version 3.0
#This file was generated by the deal.II library on 2026/3/10 at 19:06:49
ASCII
DATASET UNSTRUCTURED_GRID

POINTS 512 double
0 0 0
0.0490874 0 0
0.0490874 0 0
0.0981748 0 0
0.0981748 0 0
0.147262 0 0
0.147262 0 0
0.19635 0 0
0.19635 0 0
0.245437 0 0
0.245437 0 0
0.294524 0 0
0.294524 0 0
0.343612 0 0
0.343612 0 0
0.392699 0 0
0.392699 0 0
0.441786 0 0
0.441786 0 0
0.490874 0 0
0.490874 0 0
0.539961 0 0
0.539961 0 0
0.589049 0 0
0.589049 0 0
0.638136 0 0
0.638136 0 0
0.687223 0 0
0.687223 0 0
0.736311 0 0
0.736311 0 0
0.785398 0 0
0.785398 0 0
0.834486 0 0
0.834486 0 0
0.883573 0 0
0.883573 0 0
0.93266 0 0
0.93266 0 0
0.981748 0 0
0.981748 0 0
1.03084 0 0
1.03084 0 0
1.07992 0 0
1.07992 0 0
1.12901 0 0
1.12901 0 0
1.1781 0 0
1.1781 0 0
1.22718 0 0
1.22718 0 0
1.27627 0 0
1.27627 0 0
1.32536 0 0
1.32536 0 0
1.37445 0 0
1.37445 0 0
1.42353 0 0
1.42353 0 0
1.47262 0 0
1.47262 0 0
1.52171 0 0
1.52171 0 0
1.5708 0 0
1.5708 0 0
1.61988 0 0
1.61988 0 0
1.66897 0 0
1.66897 0 0
1.71806 0 0
1.71806 0 0
1.76715 0 0
1.76715 0 0
1.81623 0 0
1.81623 0 0
1.86532 0 0
1.86532 0 0
1.91441 0 0
1.91441 0 0
1.9635 0 0
1.9635 0 0
2.01258 0 0
2.01258 0 0
2.06167 0 0
2.06167 0 0
2.11076 0 0
2.11076 0 0
2.15984 0 0
2.15984 0 0
2.20893 0 0
2.20893 0 0
2.25802 0 0
2.25802 0 0
2.30711 0 0
2.30711 0 0
2.35619 0 0
2.35619 0 0
2.40528 0 0
2.40528 0 0
2.45437 0 0
2.45437 0 0
2.50346 0 0
2.50346 0 0
2.55254 0 0
2.55254 0 0
2.60163 0 0
2.60163 0 0
2.65072 0 0
2.65072 0 0
2.69981 0 0
2.69981 0 0
2.74889 0 0
2.74889 0 0
2.79798 0 0
2.79798 0 0
2.84707 0 0
2.84707 0 0
2.89616 0 0
2.89616 0 0
2.94524 0 0
2.94524 0 0
2.99433 0 0
2.99433 0 0
3.04342 0 0
3.04342 0 0
3.09251 0 0
3.09251 0 0
3.14159 0 0
3.14159 0 0
3.19068 0 0
3.19068 0 0
3.23977 0 0
3.23977 0 0
3.28885 0 0
3.28885 0 0
3.33794 0 0
3.33794 0 0
3.38703 0 0
3.38703 0 0
3.43612 0 0
3.43612 0 0
3.4852 0 0
3.4852 0 0
3.53429 0 0
3.53429 0 0
3.58338 0 0
3.58338 0 0
3.63247 0 0
3.63247 0 0
3.68155 0 0
3.68155 0 0
3.73064 0 0
3.73064 0 0
3.77973 0 0
3.77973 0 0
3.82882 0 0
3.82882 0 0
3.8779 0 0
3.8779 0 0
3.92699 0 0
3.92699 0 0
3.97608 0 0
3.97608 0 0
4.02517 0 0
4.02517 0 0
4.07425 0 0
4.07425 0 0
4.12334 0 0
4.12334 0 0
4.17243 0 0
4.17243 0 0
4.22152 0 0
4.22152 0 0
4.2706 0 0
4.2706 0 0
4.31969 0 0
4.31969 0 0
4.36878 0 0
4.36878 0 0
4.41786 0 0
4.41786 0 0
4.46695 0 0
4.46695 0 0
4.51604 0 0
4.51604 0 0
4.56513 0 0
4.56513 0 0
4.61421 0 0
4.61421 0 0
4.6633 0 0
4.6633 0 0
4.71239 0 0
4.71239 0 0
4.76148 0 0
4.76148 0 0
4.81056 0 0
4.81056 0 0
4.85965 0 0
4.85965 0 0
4.90874 0 0
4.90874 0 0
4.95783 0 0
4.95783 0 0
5.00691 0 0
5.00691 0 0
5.056 0 0
5.056 0 0
5.10509 0 0
5.10509 0 0
5.15418 0 0
5.15418 0 0
5.20326 0 0
5.20326 0 0
5.25235 0 0
5.25235 0 0
5.30144 0 0
5.30144 0 0
5.35052 0 0
5.35052 0 0
5.39961 0 0
5.39961 0 0
5.4487 0 0
5.4487 0 0
5.49779 0 0
5.49779 0 0
5.54687 0 0
5.54687 0 0
5.59596 0 0
5.59596 0 0
5.64505 0 0
5.64505 0 0
5.69414 0 0
5.69414 0 0
5.74322 0 0
5.74322 0 0
5.79231 0 0
5.79231 0 0
5.8414 0 0
5.8414 0 0
5.89049 0 0
5.89049 0 0
5.93957 0 0
5.93957 0 0
5.98866 0 0
5.98866 0 0
6.03775 0 0
6.03775 0 0
6.08684 0 0
6.08684 0 0
6.13592 0 0
6.13592 0 0
6.18501 0 0
6.18501 0 0
6.2341 0 0
6.2341 0 0
6.28319 0 0
6.28319 0 0
6.33227 0 0
6.33227 0 0
6.38136 0 0
6.38136 0 0
6.43045 0 0
6.43045 0 0
6.47953 0 0
6.47953 0 0
6.52862 0 0
6.52862 0 0
6.57771 0 0
6.57771 0 0
6.6268 0 0
6.6268 0 0
6.67588 0 0
6.67588 0 0
6.72497 0 0
6.72497 0 0
6.77406 0 0
6.77406 0 0
6.82315 0 0
6.82315 0 0
6.87223 0 0
6.87223 0 0
6.92132 0 0
6.92132 0 0
6.97041 0 0
6.97041 0 0
7.0195 0 0
7.0195 0 0
7.06858 0 0
7.06858 0 0
7.11767 0 0
7.11767 0 0
7.16676 0 0
7.16676 0 0
7.21585 0 0
7.21585 0 0
7.26493 0 0
7.26493 0 0
7.31402 0 0
7.31402 0 0
7.36311 0 0
7.36311 0 0
7.4122 0 0
7.4122 0 0
7.46128 0 0
7.46128 0 0
7.51037 0 0
7.51037 0 0
7.55946 0 0
7.55946 0 0
7.60854 0 0
7.60854 0 0
7.65763 0 0
7.65763 0 0
7.70672 0 0
7.70672 0 0
7.75581 0 0
7.75581 0 0
7.80489 0 0
7.80489 0 0
7.85398 0 0
7.85398 0 0
7.90307 0 0
7.90307 0 0
7.95216 0 0
7.95216 0 0
8.00124 0 0
8.00124 0 0
8.05033 0 0
8.05033 0 0
8.09942 0 0
8.09942 0 0
8.14851 0 0
8.14851 0 0
8.19759 0 0
8.19759 0 0
8.24668 0 0
8.24668 0 0
8.29577 0 0
8.29577 0 0
8.34486 0 0
8.34486 0 0
8.39394 0 0
8.39394 0 0
8.44303 0 0
8.44303 0 0
8.49212 0 0
8.49212 0 0
8.54121 0 0
8.54121 0 0
8.59029 0 0
8.59029 0 0
8.63938 0 0
8.63938 0 0
8.68847 0 0
8.68847 0 0
8.73755 0 0
8.73755 0 0
8.78664 0 0
8.78664 0 0
8.83573 0 0
8.83573 0 0
8.88482 0 0
8.88482 0 0
8.9339 0 0
8.9339 0 0
8.98299 0 0
8.98299 0 0
9.03208 0 0
9.03208 0 0
9.08117 0 0
9.08117 0 0
9.13025 0 0
9.13025 0 0
9.17934 0 0
9.17934 0 0
9.22843 0 0
9.22843 0 0
9.27752 0 0
9.27752 0 0
9.3266 0 0
9.3266 0 0
9.37569 0 0
9.37569 0 0
9.42478 0 0
9.42478 0 0
9.47387 0 0
9.47387 0 0
9.52295 0 0
9.52295 0 0
9.57204 0 0
9.57204 0 0
9.62113 0 0
9.62113 0 0
9.67021 0 0
9.67021 0 0
9.7193 0 0
9.7193 0 0
9.76839 0 0
9.76839 0 0
9.81748 0 0
9.81748 0 0
9.86656 0 0
9.86656 0 0
9.91565 0 0
9.91565 0 0
9.96474 0 0
9.96474 0 0
10.0138 0 0
10.0138 0 0
10.0629 0 0
10.0629 0 0
10.112 0 0
10.112 0 0
10.1611 0 0
10.1611 0 0
10.2102 0 0
10.2102 0 0
10.2593 0 0
10.2593 0 0
10.3084 0 0
10.3084 0 0
10.3574 0 0
10.3574 0 0
10.4065 0 0
10.4065 0 0
10.4556 0 0
10.4556 0 0
10.5047 0 0
10.5047 0 0
10.5538 0 0
10.5538 0 0
10.6029 0 0
10.6029 0 0
10.652 0 0
10.652 0 0
10.701 0 0
10.701 0 0
10.7501 0 0
10.7501 0 0
10.7992 0 0
10.7992 0 0
10.8483 0 0
10.8483 0 0
10.8974 0 0
10.8974 0 0
10.9465 0 0
10.9465 0 0
10.9956 0 0
10.9956 0 0
11.0447 0 0
11.0447 0 0
11.0937 0 0
11.0937 0 0
11.1428 0 0
11.1428 0 0
11.1919 0 0
11.1919 0 0
11.241 0 0
11.241 0 0
11.2901 0 0
11.2901 0 0
11.3392 0 0
11.3392 0 0
11.3883 0 0
11.3883 0 0
11.4374 0 0
11.4374 0 0
11.4864 0 0
11.4864 0 0
11.5355 0 0
11.5355 0 0
11.5846 0 0
11.5846 0 0
11.6337 0 0
11.6337 0 0
11.6828 0 0
11.6828 0 0
11.7319 0 0
11.7319 0 0
11.781 0 0
11.781 0 0
11.8301 0 0
11.8301 0 0
11.8791 0 0
11.8791 0 0
11.9282 0 0
11.9282 0 0
11.9773 0 0
11.9773 0 0
12.0264 0 0
12.0264 0 0
12.0755 0 0
12.0755 0 0
12.1246 0 0
12.1246 0 0
12.1737 0 0
12.1737 0 0
12.2228 0 0
12.2228 0 0
12.2718 0 0
12.2718 0 0
12.3209 0 0
12.3209 0 0
12.37 0 0
12.37 0 0
12.4191 0 0
12.4191 0 0
12.4682 0 0
12.4682 0 0
12.5173 0 0
12.5173 0 0
12.5664 0 0

CELLS 256 768
2	0	1
2	2	3
2	4	5
2	6	7
2	8	9
2	10	11
2	12	13
2	14	15
2	16	17
2	18	19
2	20	21
2	22	23
2	24	25
2	26	27
2	28	29
2	30	31
2	32	33
2	34	35
2	36	37
2	38	39
2	40	41
2	42	43
2	44	45
2	46	47
2	48	49
2	50	51
2	52	53
2	54	55
2	56	57
2	58	59
2	60	61
2	62	63
2	64	65
2	66	67
2	68	69
2	70	71
2	72	73
2	74	75
2	76	77
2	78	79
2	80	81
2	82	83
2	84	85
2	86	87
2	88	89
2	90	91
2	92	93
2	94	95
2	96	97
2	98	99
2	100	101
2	102	103
2	104	105
2	106	107
2	108	109
2	110	111
2	112	113
2	114	115
2	116	117
2	118	119
2	120	121
2	122	123
2	124	125
2	126	127
2	128	129
2	130	131
2	132	133
2	134	135
2	136	137
2	138	139
2	140	141
2	142	143
2	144	145
2	146	147
2	148	149
2	150	151
2	152	153
2	154	155
2	156	157
2	158	159
2	160	161
2	162	163
2	164	165
2	166	167
2	168	169
2	170	171
2	172	173
2	174	175
2	176	177
2	178	179
2	180	181
2	182	183
2	184	185
2	186	187
2	188	189
2	190	191
2	192	193
2	194	195
2	196	197
2	198	199
2	200	201
2	202	203
2	204	205
2	206	207
2	208	209
2	210	211
2	212	213
2	214	215
2	216	217
2	218	219
2	220	221
2	222	223
2	224	225
2	226	227
2	228	229
2	230	231
2	232	233
2	234	235
2	236	237
2	238	239
2	240	241
2	242	243
2	244	245
2	246	247
2	248	249
2	250	251
2	252	253
2	254	255
2	256	257
2	258	259
2	260	261
2	262	263
2	264	265
2	266	267
2	268	269
2	270	271
2	272	273
2	274	275
2	276	277
2	278	279
2	280	281
2	282	283
2	284	285
2	286	287
2	288	289
2	290	291
2	292	293
2	294	295
2	296	297
2	298	299
2	300	301
2	302	303
2	304	305
2	306	307
2	308	309
2	310	311
2	312	313
2	314	315
2	316	317
2	318	319
2	320	321
2	322	323
2	324	325
2	326	327
2	328	329
2	330	331
2	332	333
2	334	335
2	336	337
2	338	339
2	340	341
2	342	343
2	344	345
2	346	347
2	348	349
2	350	351
2	352	353
2	354	355
2	356	357
2	358	359
2	360	361
2	362	363
2	364	365
2	366	367
2	368	369
2	370	371
2	372	373
2	374	375
2	376	377
2	378	379
2	380	381
2	382	383
2	384	385
2	386	387
2	388	389
2	390	391
2	392	393
2	394	395
2	396	397
2	398	399
2	400	401
2	402	403
2	404	405
2	406	407
2	408	409
2	410	411
2	412	413
2	414	415
2	416	417
2	418	419
2	420	421
2	422	423
2	424	425
2	426	427
2	428	429
2	430	431
2	432	433
2	434	435
2	436	437
2	438	439
2	440	441
2	442	443
2	444	445
2	446	447
2	448	449
2	450	451
2	452	453
2	454	455
2	456	457
2	458	459
2	460	461
2	462	463
2	464	465
2	466	467
2	468	469
2	470	471
2	472	473
2	474	475
2	476	477
2	478	479
2	480	481
2	482	483
2	484	485
2	486	487
2	488	489
2	490	491
2	492	493
2	494	495
2	496	497
2	498	499
2	500	501
2	502	503
2	504	505
2	506	507
2	508	509
2	510	511

CELL_TYPES 256
 3 3 3 3 3 3 3 3 3 3 3 3 3 3 3 3 3 3 3 3 3 3 3 3 3 3 3 3 3 3 3 3 3 3 3 3 3 3 3 3 3 3 3 3 3 3 3 3 3 3 3 3 3 3 3 3 3 3 3 3 3 3 3 3 3 3 3 3 3 3 3 3 3 3 3 3 3 3 3 3 3 3 3 3 3 3 3 3 3 3 3 3 3 3 3 3 3 3 3 3 3 3 3 3 3 3 3 3 3 3 3 3 3 3 3 3 3 3 3 3 3 3 3 3 3 3 3 3 3 3 3 3 3 3 3 3 3 3 3 3 3 3 3 3 3 3 3 3 3 3 3 3 3 3 3 3 3 3 3 3 3 3 3 3 3 3 3 3 3 3 3 3 3 3 3 3 3 3 3 3 3 3 3 3 3 3 3 3 3 3 3 3 3 3 3 3 3 3 3 3 3 3 3 3 3 3 3 3 3 3 3 3 3 3 3 3 3 3 3 3 3 3 3 3 3 3 3 3 3 3 3 3 3 3 3 3 3 3 3 3 3 3 3 3 3 3 3 3 3 3 3 3 3 3 3 3
POINT_DATA 512
VECTORS electric_field double
-12.2683 0 0
-12.2192 0 0
-12.2192 0 0
-12.1702 0 0
-12.1702 0 0
-12.1211 0 0
-12.1211 0 0
-12.072 0 0
-12.072 0 0
-12.0229 0 0
-12.0229 0 0
-11.9738 0 0
-11.9738 0 0
-11.9247 0 0
-11.9247 0 0
-11.8756 0 0
-11.8756 0 0
-11.8265 0 0
-11.8265 0 0
-11.7775 0 0
-11.7775 0 0
-11.7284 0 0
-11.7284 0 0
-11.6793 0 0
-11.6793 0 0
-11.6302 0 0
-11.6302 0 0
-11.5811 0 0
-11.5811 0 0
-11.532 0 0
-11.532 0 0
-11.4829 0 0
-11.4829 0 0
-11.4338 0 0
-11.4338 0 0
-11.3848 0 0
-11.3848 0 0
-11.3357 0 0
-11.3357 0 0
-11.2866 0 0
-11.2866 0 0
-11.2375 0 0
-11.2375 0 0
-11.1884 0 0
-11.1884 0 0
-11.1393 0 0
-11.1393 0 0
-11.0902 0 0
-11.0902 0 0
-11.0411 0 0
-11.0411 0 0
-10.9921 0 0
-10.9921 0 0
-10.943 0 0
-10.943 0 0
-10.8939 0 0
-10.8939 0 0
-10.8448 0 0
-10.8448 0 0
-10.7957 0 0
-10.7957 0 0
-10.7466 0 0
-10.7466 0 0
-10.6975 0 0
-10.6975 0 0
-10.6484 0 0
-10.6484 0 0
-10.5994 0 0
-10.5994 0 0
-10.5503 0 0
-10.5503 0 0
-10.5012 0 0
-10.5012 0 0
-10.4521 0 0
-10.4521 0 0
-10.403 0 0
-10.403 0 0
-10.3539 0 0
-10.3539 0 0
-10.3048 0 0
-10.3048 0 0
-10.2557 0 0
-10.2557 0 0
-10.2067 0 0
-10.2067 0 0
-10.1576 0 0
-10.1576 0 0
-10.1085 0 0
-10.1085 0 0
-10.0594 0 0
-10.0594 0 0
-10.0103 0 0
-10.0103 0 0
-9.96122 0 0
-9.96122 0 0
-9.91214 0 0
-9.91214 0 0
-9.86305 0 0
-9.86305 0 0
-9.81396 0 0
-9.81396 0 0
-9.76487 0 0
-9.76487 0 0
-9.71579 0 0
-9.71579 0 0
-9.6667 0 0
-9.6667 0 0
-9.61761 0 0
-9.61761 0 0
-9.56852 0 0
-9.56852 0 0
-9.51944 0 0
-9.51944 0 0
-9.47035 0 0
-9.47035 0 0
-9.42126 0 0
-9.42126 0 0
-9.37218 0 0
-9.37218 0 0
-9.32309 0 0
-9.32309 0 0
-9.274 0 0
-9.274 0 0
-9.22491 0 0
-9.22491 0 0
-9.17583 0 0
-9.17583 0 0
-9.12674 0 0
-9.12674 0 0
-9.07765 0 0
-9.07765 0 0
-9.02856 0 0
-9.02856 0 0
-8.97948 0 0
-8.97948 0 0
-8.93039 0 0
-8.93039 0 0
-8.8813 0 0
-8.8813 0 0
-8.83221 0 0
-8.83221 0 0
-8.78313 0 0
-8.78313 0 0
-8.73404 0 0
-8.73404 0 0
-8.68495 0 0
-8.68495 0 0
-8.63586 0 0
-8.63586 0 0
-8.58678 0 0
-8.58678 0 0
-8.53769 0 0
-8.53769 0 0
-8.4886 0 0
-8.4886 0 0
-8.43951 0 0
-8.43951 0 0
-8.39043 0 0
-8.39043 0 0
-8.34134 0 0
-8.34134 0 0
-8.29225 0 0
-8.29225 0 0
-8.24317 0 0
-8.24317 0 0
-8.19408 0 0
-8.19408 0 0
-8.14499 0 0
-8.14499 0 0
-8.0959 0 0
-8.0959 0 0
-8.04682 0 0
-8.04682 0 0
-7.99773 0 0
-7.99773 0 0
-7.94864 0 0
-7.94864 0 0
-7.89955 0 0
-7.89955 0 0
-7.85047 0 0
-7.85047 0 0
-7.80138 0 0
-7.80138 0 0
-7.75229 0 0
-7.75229 0 0
-7.7032 0 0
-7.7032 0 0
-7.65412 0 0
-7.65412 0 0
-7.60503 0 0
-7.60503 0 0
-7.55594 0 0
-7.55594 0 0
-7.50685 0 0
-7.50685 0 0
-7.45777 0 0
-7.45777 0 0
-7.40868 0 0
-7.40868 0 0
-7.35959 0 0
-7.35959 0 0
-7.3105 0 0
-7.3105 0 0
-7.26142 0 0
-7.26142 0 0
-7.21233 0 0
-7.21233 0 0
-7.16324 0 0
-7.16324 0 0
-7.11416 0 0
-7.11416 0 0
-7.06507 0 0
-7.06507 0 0
-7.01598 0 0
-7.01598 0 0
-6.96689 0 0
-6.96689 0 0
-6.91781 0 0
-6.91781 0 0
-6.86872 0 0
-6.86872 0 0
-6.81963 0 0
-6.81963 0 0
-6.77054 0 0
-6.77054 0 0
-6.72146 0 0
-6.72146 0 0
-6.67237 0 0
-6.67237 0 0
-6.62328 0 0
-6.62328 0 0
-6.57419 0 0
-6.57419 0 0
-6.52511 0 0
-6.52511 0 0
-6.47602 0 0
-6.47602 0 0
-6.42693 0 0
-6.42693 0 0
-6.37784 0 0
-6.37784 0 0
-6.32876 0 0
-6.32876 0 0
-6.27967 0 0
-6.27967 0 0
-6.23058 0 0
-6.23058 0 0
-6.18149 0 0
-6.18149 0 0
-6.13241 0 0
-6.13241 0 0
-6.08332 0 0
-6.08332 0 0
-6.03423 0 0
-6.03423 0 0
-5.98515 0 0
-5.98515 0 0
-5.93606 0 0
-5.93606 0 0
-5.88697 0 0
-5.88697 0 0
-5.83788 0 0
-5.83788 0 0
-5.7888 0 0
-5.7888 0 0
-5.73971 0 0
-5.73971 0 0
-5.69062 0 0
-5.69062 0 0
-5.64153 0 0
-5.64153 0 0
-5.59245 0 0
-5.59245 0 0
-5.54336 0 0
-5.54336 0 0
-5.49427 0 0
-5.49427 0 0
-5.44518 0 0
-5.44518 0 0
-5.3961 0 0
-5.3961 0 0
-5.34701 0 0
-5.34701 0 0
-5.29792 0 0
-5.29792 0 0
-5.24883 0 0
-5.24883 0 0
-5.19975 0 0
-5.19975 0 0
-5.15066 0 0
-5.15066 0 0
-5.10157 0 0
-5.10157 0 0
-5.05248 0 0
-5.05248 0 0
-5.0034 0 0
-5.0034 0 0
-4.95431 0 0
-4.95431 0 0
-4.90522 0 0
-4.90522 0 0
-4.85614 0 0
-4.85614 0 0
-4.80705 0 0
-4.80705 0 0
-4.75796 0 0
-4.75796 0 0
-4.70887 0 0
-4.70887 0 0
-4.65979 0 0
-4.65979 0 0
-4.6107 0 0
-4.6107 0 0
-4.56161 0 0
-4.56161 0 0
-4.51252 0 0
-4.51252 0 0
-4.46344 0 0
-4.46344 0 0
-4.41435 0 0
-4.41435 0 0
-4.36526 0 0
-4.36526 0 0
-4.31617 0 0
-4.31617 0 0
-4.26709 0 0
-4.26709 0 0
-4.218 0 0
-4.218 0 0
-4.16891 0 0
-4.16891 0 0
-4.11982 0 0
-4.11982 0 0
-4.07074 0 0
-4.07074 0 0
-4.02165 0 0
-4.02165 0 0
-3.97256 0 0
-3.97256 0 0
-3.92348 0 0
-3.92348 0 0
-3.87439 0 0
-3.87439 0 0
-3.8253 0 0
-3.8253 0 0
-3.77621 0 0
-3.77621 0 0
-3.72713 0 0
-3.72713 0 0
-3.67804 0 0
-3.67804 0 0
-3.62895 0 0
-3.62895 0 0
-3.57986 0 0
-3.57986 0 0
-3.53078 0 0
-3.53078 0 0
-3.48169 0 0
-3.48169 0 0
-3.4326 0 0
-3.4326 0 0
-3.38351 0 0
-3.38351 0 0
-3.33443 0 0
-3.33443 0 0
-3.28534 0 0
-3.28534 0 0
-3.23625 0 0
-3.23625 0 0
-3.18716 0 0
-3.18716 0 0
-3.13808 0 0
-3.13808 0 0
-3.08899 0 0
-3.08899 0 0
-3.0399 0 0
-3.0399 0 0
-2.99081 0 0
-2.99081 0 0
-2.94173 0 0
-2.94173 0 0
-2.89264 0 0
-2.89264 0 0
-2.84355 0 0
-2.84355 0 0
-2.79447 0 0
-2.79447 0 0
-2.74538 0 0
-2.74538 0 0
-2.69629 0 0
-2.69629 0 0
-2.6472 0 0
-2.6472 0 0
-2.59812 0 0
-2.59812 0 0
-2.54903 0 0
-2.54903 0 0
-2.49994 0 0
-2.49994 0 0
-2.45085 0 0
-2.45085 0 0
-2.40177 0 0
-2.40177 0 0
-2.35268 0 0
-2.35268 0 0
-2.30359 0 0
-2.30359 0 0
-2.2545 0 0
-2.2545 0 0
-2.20542 0 0
-2.2054 0 0
-2.15641 0 0
-2.15646 0 0
-2.10737 0 0
-2.10737 0 0
-2.05828 0 0
-2.05828 0 0
-2.00919 0 0
-2.00919 0 0
-1.96011 0 0
-1.96011 0 0
-1.91117 0 0
-1.91113 0 0
-1.86204 0 0
-1.86204 0 0
-1.81295 0 0
-1.81297 0 0
-1.76397 0 0
-1.76399 0 0
-1.7149 0 0
-1.7149 0 0
-1.66582 0 0
-1.66582 0 0
-1.61673 0 0
-1.61673 0 0
-1.56764 0 0
-1.56764 0 0
-1.51855 0 0
-1.51855 0 0
-1.46947 0 0
-1.46947 0 0
-1.42038 0 0
-1.42038 0 0
-1.37129 0 0
-1.37129 0 0
-1.3222 0 0
-1.3222 0 0
-1.27312 0 0
-1.27312 0 0
-1.22403 0 0
-1.22404 0 0
-1.17499 0 0
-1.17499 0 0
-1.12595 0 0
-1.12597 0 0
-1.0771 0 0
-1.07702 0 0
-1.02839 0 0
-1.0283 0 0
-0.979611 0 0
-0.979589 0 0
-0.931022 0 0
-0.93104 0 0
-0.882622 0 0
-0.882554 0 0
-0.8349 0 0
-0.834886 0 0
-0.787769 0 0
-0.787787 0 0
-0.741204 0 0
-0.741137 0 0
-0.695575 0 0
-0.695559 0 0
-0.65097 0 0
-0.650973 0 0
-0.607517 0 0
-0.607647 0 0
-0.565673 0 0
-0.565783 0 0
-0.524938 0 0
-0.524984 0 0
-0.48565 0 0
-0.48567 0 0
-0.448013 0 0
-0.448048 0 0
-0.411771 0 0
-0.411876 0 0
-0.376855 0 0
-0.376852 0 0
-0.343731 0 0
-0.343808 0 0
-0.311515 0 0
-0.311584 0 0
-0.280487 0 0
-0.280509 0 0
-0.251405 0 0
-0.251227 0 0
-0.222838 0 0
-0.22266 0 0
-0.196042 0 0
-0.196045 0 0
-0.170232 0 0
-0.170281 0 0
-0.14526 0 0
-0.145356 0 0
-0.121687 0 0
-0.121624 0 0
-0.0981665 0 0
-0.0981748 0 0
-0.0490874 0 0
-0.0490874 0 0
-2.18279e-11 0 0
SCALARS potential double 1
LOOKUP_TABLE default
0 0.601016 0.601016 1.19962 1.19962 1.79582 1.79582 2.3896 2.3896 2.98098 2.98098 3.56995 3.56995 4.15651 4.15651 4.74066 4.74066 5.32239 5.32239 5.90172 5.90172 6.47864 6.47864 7.05315 7.05315 7.62525 7.62525 8.19495 8.19495 8.76223 8.76223 9.3271 9.3271 9.88956 9.88956 10.4496 10.4496 11.0073 11.0073 11.5625 11.5625 12.1153 12.1153 12.6657 12.6657 13.2137 13.2137 13.7593 13.7593 14.3025 14.3025 14.8433 14.8433 15.3817 15.3817 15.9176 15.9176 16.4512 16.4512 16.9823 16.9823 17.511 17.511 18.0373 18.0373 18.5613 18.5613 19.0828 19.0828 19.6018 19.6018 20.1185 20.1185 20.6328 20.6328 21.1447 21.1447 21.6541 21.6541 22.1612 22.1612 22.6658 22.6658 23.168 23.168 23.6678 23.6678 24.1652 24.1652 24.6602 24.6602 25.1528 25.1528 25.643 25.643 26.1307 26.1307 26.6161 26.6161 27.099 27.099 27.5796 27.5796 28.0577 28.0577 28.5334 28.5334 29.0067 29.0067 29.4776 29.4776 29.9461 29.9461 30.4122 30.4122 30.8759 30.8759 31.3371 31.3371 31.796 31.796 32.2524 32.2524 32.7065 32.7065 33.1581 33.1581 33.6073 33.6073 34.0541 34.0541 34.4985 34.4985 34.9405 34.9405 35.3801 35.3801 35.8172 35.8172 36.252 36.252 36.6843 36.6843 37.1143 37.1143 37.5418 37.5418 37.9669 37.9669 38.3896 38.3896 38.8099 38.8099 39.2278 39.2278 39.6433 39.6433 40.0563 40.0563 40.467 40.467 40.8752 40.8752 41.2811 41.2811 41.6845 41.6845 42.0855 42.0855 42.4841 42.4841 42.8803 42.8803 43.2741 43.2741 43.6655 43.6655 44.0545 44.0545 44.4411 44.4411 44.8252 44.8252 45.207 45.207 45.5863 45.5863 45.9632 45.9632 46.3377 46.3377 46.7098 46.7098 47.0795 47.0795 47.4468 47.4468 47.8117 47.8117 48.1742 48.1742 48.5342 48.5342 48.8919 48.8919 49.2471 49.2471 49.5999 49.5999 49.9504 49.9504 50.2984 50.2984 50.644 50.644 50.9872 50.9872 51.3279 51.3279 51.6663 51.6663 52.0023 52.0023 52.3358 52.3358 52.667 52.667 52.9957 52.9957 53.322 53.322 53.646 53.646 53.9675 53.9675 54.2866 54.2866 54.6032 54.6032 54.9175 54.9175 55.2294 55.2294 55.5388 55.5388 55.8459 55.8459 56.1505 56.1505 56.4528 56.4528 56.7526 56.7526 57.05 57.05 57.345 57.345 57.6376 57.6376 57.9278 57.9278 58.2155 58.2155 58.5009 58.5009 58.7838 58.7838 59.0644 59.0644 59.3425 59.3425 59.6182 59.6182 59.8916 59.8916 60.1625 60.1625 60.431 60.431 60.697 60.697 60.9607 60.9607 61.222 61.222 61.4808 61.4808 61.7373 61.7373 61.9913 61.9913 62.2429 62.2429 62.4922 62.4922 62.739 62.739 62.9834 62.9834 63.2254 63.2254 63.4649 63.4649 63.7021 63.7021 63.9369 63.9369 64.1692 64.1692 64.3992 64.3992 64.6267 64.6267 64.8518 64.8518 65.0745 65.0745 65.2948 65.2948 65.5127 65.5127 65.7282 65.7282 65.9413 65.9413 66.152 66.152 66.3602 66.3602 66.5661 66.5661 66.7695 66.7695 66.9705 66.9705 67.1691 67.1691 67.3653 67.3653 67.5591 67.5591 67.7505 67.7505 67.9395 67.9395 68.1261 68.1261 68.3102 68.3102 68.492 68.492 68.6713 68.6713 68.8483 68.8483 69.0228 69.0228 69.1949 69.1949 69.3646 69.3646 69.5319 69.5319 69.6968 69.6968 69.8592 69.8592 70.0193 70.0193 70.177 70.177 70.3322 70.3322 70.485 70.485 70.6355 70.6355 70.7835 70.7835 70.9291 70.9291 71.0723 71.0723 71.2131 71.2131 71.3514 71.3514 71.4874 71.4874 71.621 71.621 71.7521 71.7521 71.8809 71.8809 72.0072 72.0072 72.1311 72.1311 72.2526 72.2526 72.3717 72.3717 72.4884 72.4884 72.6027 72.6027 72.7146 72.7146 72.824 72.824 72.9311 72.9311 73.0357 73.0357 73.138 73.138 73.2378 73.2378 73.3352 73.3352 73.4302 73.4302 73.5229 73.5229 73.6131 73.6131 73.7008 73.7008 73.7862 73.7862 73.8692 73.8692 73.9498 73.9498 74.0279 74.0279 74.1037 74.1037 74.177 74.177 74.2479 74.2479 74.3165 74.3165 74.3826 74.3826 74.4463 74.4463 74.5076 74.5076 74.5664 74.5664 74.6229 74.6229 74.677 74.677 74.7286 74.7286 74.7779 74.7779 74.8248 74.8248 74.8693 74.8693 74.9115 74.9115 74.9513 74.9513 74.9888 74.9888 75.0241 75.0241 75.0571 75.0571 75.088 75.088 75.1168 75.1168 75.1436 75.1436 75.1684 75.1684 75.1913 75.1913 75.2124 75.2124 75.2318 75.2318 75.2494 75.2494 75.2655 75.2655 75.28 75.28 75.2931 75.2931 75.3047 75.3047 75.315 75.315 75.324 75.324 75.3317 75.3317 75.3382 75.3382 75.3436 75.3436 75.3473 75.3473 75.3485 
SCALARS x_coordinate double 1
LOOKUP_TABLE default
0 0.0490874 0.0490874 0.0981748 0.0981748 0.147262 0.147262 0.19635 0.19635 0.245437 0.245437 0.294524 0.294524 0.343612 0.343612 0.392699 0.392699 0.441786 0.441786 0.490874 0.490874 0.539961 0.539961 0.589049 0.589049 0.638136 0.638136 0.687223 0.687223 0.736311 0.736311 0.785398 0.785398 0.834486 0.834486 0.883573 0.883573 0.93266 0.93266 0.981748 0.981748 1.03084 1.03084 1.07992 1.07992 1.12901 1.12901 1.1781 1.1781 1.22718 1.22718 1.27627 1.27627 1.32536 1.32536 1.37445 1.37445 1.42353 1.42353 1.47262 1.47262 1.52171 1.52171 1.5708 1.5708 1.61988 1.61988 1.66897 1.66897 1.71806 1.71806 1.76715 1.76715 1.81623 1.81623 1.86532 1.86532 1.91441 1.91441 1.9635 1.9635 2.01258 2.01258 2.06167 2.06167 2.11076 2.11076 2.15984 2.15984 2.20893 2.20893 2.25802 2.25802 2.30711 2.30711 2.35619 2.35619 2.40528 2.40528 2.45437 2.45437 2.50346 2.50346 2.55254 2.55254 2.60163 2.60163 2.65072 2.65072 2.69981 2.69981 2.74889 2.74889 2.79798 2.79798 2.84707 2.84707 2.89616 2.89616 2.94524 2.94524 2.99433 2.99433 3.04342 3.04342 3.09251 3.09251 3.14159 3.14159 3.19068 3.19068 3.23977 3.23977 3.28885 3.28885 3.33794 3.33794 3.38703 3.38703 3.43612 3.43612 3.4852 3.4852 3.53429 3.53429 3.58338 3.58338 3.63247 3.63247 3.68155 3.68155 3.73064 3.73064 3.77973 3.77973 3.82882 3.82882 3.8779 3.8779 3.92699 3.92699 3.97608 3.97608 4.02517 4.02517 4.07425 4.07425 4.12334 4.12334 4.17243 4.17243 4.22152 4.22152 4.2706 4.2706 4.31969 4.31969 4.36878 4.36878 4.41786 4.41786 4.46695 4.46695 4.51604 4.51604 4.56513 4.56513 4.61421 4.61421 4.6633 4.6633 4.71239 4.71239 4.76148 4.76148 4.81056 4.81056 4.85965 4.85965 4.90874 4.90874 4.95783 4.95783 5.00691 5.00691 5.056 5.056 5.10509 5.10509 5.15418 5.15418 5.20326 5.20326 5.25235 5.25235 5.30144 5.30144 5.35052 5.35052 5.39961 5.39961 5.4487 5.4487 5.49779 5.49779 5.54687 5.54687 5.59596 5.59596 5.64505 5.64505 5.69414 5.69414 5.74322 5.74322 5.79231 5.79231 5.8414 5.8414 5.89049 5.89049 5.93957 5.93957 5.98866 5.98866 6.03775 6.03775 6.08684 6.08684 6.13592 6.13592 6.18501 6.18501 6.2341 6.2341 6.28319 6.28319 6.33227 6.33227 6.38136 6.38136 6.43045 6.43045 6.47953 6.47953 6.52862 6.52862 6.57771 6.57771 6.6268 6.6268 6.67588 6.67588 6.72497 6.72497 6.77406 6.77406 6.82315 6.82315 6.87223 6.87223 6.92132 6.92132 6.97041 6.97041 7.0195 7.0195 7.06858 7.06858 7.11767 7.11767 7.16676 7.16676 7.21585 7.21585 7.26493 7.26493 7.31402 7.31402 7.36311 7.36311 7.4122 7.4122 7.46128 7.46128 7.51037 7.51037 7.55946 7.55946 7.60854 7.60854 7.65763 7.65763 7.70672 7.70672 7.75581 7.75581 7.80489 7.80489 7.85398 7.85398 7.90307 7.90307 7.95216 7.95216 8.00124 8.00124 8.05033 8.05033 8.09942 8.09942 8.14851 8.14851 8.19759 8.19759 8.24668 8.24668 8.29577 8.29577 8.34486 8.34486 8.39394 8.39394 8.44303 8.44303 8.49212 8.49212 8.54121 8.54121 8.59029 8.59029 8.63938 8.63938 8.68847 8.68847 8.73755 8.73755 8.78664 8.78664 8.83573 8.83573 8.88482 8.88482 8.9339 8.9339 8.98299 8.98299 9.03208 9.03208 9.08117 9.08117 9.13025 9.13025 9.17934 9.17934 9.22843 9.22843 9.27752 9.27752 9.3266 9.3266 9.37569 9.37569 9.42478 9.42478 9.47387 9.47387 9.52295 9.52295 9.57204 9.57204 9.62113 9.62113 9.67021 9.67021 9.7193 9.7193 9.76839 9.76839 9.81748 9.81748 9.86656 9.86656 9.91565 9.91565 9.96474 9.96474 10.0138 10.0138 10.0629 10.0629 10.112 10.112 10.1611 10.1611 10.2102 10.2102 10.2593 10.2593 10.3084 10.3084 10.3574 10.3574 10.4065 10.4065 10.4556 10.4556 10.5047 10.5047 10.5538 10.5538 10.6029 10.6029 10.652 10.652 10.701 10.701 10.7501 10.7501 10.7992 10.7992 10.8483 10.8483 10.8974 10.8974 10.9465 10.9465 10.9956 10.9956 11.0447 11.0447 11.0937 11.0937 11.1428 11.1428 11.1919 11.1919 11.241 11.241 11.2901 11.2901 11.3392 11.3392 11.3883 11.3883 11.4374 11.4374 11.4864 11.4864 11.5355 11.5355 11.5846 11.5846 11.6337 11.6337 11.6828 11.6828 11.7319 11.7319 11.781 11.781 11.8301 11.8301 11.8791 11.8791 11.9282 11.9282 11.9773 11.9773 12.0264 12.0264 12.0755 12.0755 12.1246 12.1246 12.1737 12.1737 12.2228 12.2228 12.2718 12.2718 12.3209 12.3209 12.37 12.37 12.4191 12.4191 12.4682 12.4682 12.5173 12.5173 12.5664 
