# vtk DataFile Version 3.0
#This file was generated by the deal.II library on 2026/3/10 at 19:07:13
ASCII
DATASET UNSTRUCTURED_GRID

POINTS 512 double
0 0 0
0.0490874 0 0
0.0490874 0 0
0.0981748 0 0
0.0981748 0 0
0.147262 0 0
0.147262 0 0
0.19635 0 0
0.19635 0 0
0.245437 0 0
0.245437 0 0
0.294524 0 0
0.294524 0 0
0.343612 0 0
0.343612 0 0
0.392699 0 0
0.392699 0 0
0.441786 0 0
0.441786 0 0
0.490874 0 0
0.490874 0 0
0.539961 0 0
0.539961 0 0
0.589049 0 0
0.589049 0 0
0.638136 0 0
0.638136 0 0
0.687223 0 0
0.687223 0 0
0.736311 0 0
0.736311 0 0
0.785398 0 0
0.785398 0 0
0.834486 0 0
0.834486 0 0
0.883573 0 0
0.883573 0 0
0.93266 0 0
0.93266 0 0
0.981748 0 0
0.981748 0 0
1.03084 0 0
1.03084 0 0
1.07992 0 0
1.07992 0 0
1.12901 0 0
1.12901 0 0
1.1781 0 0
1.1781 0 0
1.22718 0 0
1.22718 0 0
1.27627 0 0
1.27627 0 0
1.32536 0 0
1.32536 0 0
1.37445 0 0
1.37445 0 0
1.42353 0 0
1.42353 0 0
1.47262 0 0
1.47262 0 0
1.52171 0 0
1.52171 0 0
1.5708 0 0
1.5708 0 0
1.61988 0 0
1.61988 0 0
1.66897 0 0
1.66897 0 0
1.71806 0 0
1.71806 0 0
1.76715 0 0
1.76715 0 0
1.81623 0 0
1.81623 0 0
1.86532 0 0
1.86532 0 0
1.91441 0 0
1.91441 0 0
1.9635 0 0
1.9635 0 0
2.01258 0 0
2.01258 0 0
2.06167 0 0
2.06167 0 0
2.11076 0 0
2.11076 0 0
2.15984 0 0
2.15984 0 0
2.20893 0 0
2.20893 0 0
2.25802 0 0
2.25802 0 0
2.30711 0 0
2.30711 0 0
2.35619 0 0
2.35619 0 0
2.40528 0 0
2.40528 0 0
2.45437 0 0
2.45437 0 0
2.50346 0 0
2.50346 0 0
2.55254 0 0
2.55254 0 0
2.60163 0 0
2.60163 0 0
2.65072 0 0
2.65072 0 0
2.69981 0 0
2.69981 0 0
2.74889 0 0
2.74889 0 0
2.79798 0 0
2.79798 0 0
2.84707 0 0
2.84707 0 0
2.89616 0 0
2.89616 0 0
2.94524 0 0
2.94524 0 0
2.99433 0 0
2.99433 0 0
3.04342 0 0
3.04342 0 0
3.09251 0 0
3.09251 0 0
3.14159 0 0
3.14159 0 0
3.19068 0 0
3.19068 0 0
3.23977 0 0
3.23977 0 0
3.28885 0 0
3.28885 0 0
3.33794 0 0
3.33794 0 0
3.38703 0 0
3.38703 0 0
3.43612 0 0
3.43612 0 0
3.4852 0 0
3.4852 0 0
3.53429 0 0
3.53429 0 0
3.58338 0 0
3.58338 0 0
3.63247 0 0
3.63247 0 0
3.68155 0 0
3.68155 0 0
3.73064 0 0
3.73064 0 0
3.77973 0 0
3.77973 0 0
3.82882 0 0
3.82882 0 0
3.8779 0 0
3.8779 0 0
3.92699 0 0
3.92699 0 0
3.97608 0 0
3.97608 0 0
4.02517 0 0
4.02517 0 0
4.07425 0 0
4.07425 0 0
4.12334 0 0
4.12334 0 0
4.17243 0 0
4.17243 0 0
4.22152 0 0
4.22152 0 0
4.2706 0 0
4.2706 0 0
4.31969 0 0
4.31969 0 0
4.36878 0 0
4.36878 0 0
4.41786 0 0
4.41786 0 0
4.46695 0 0
4.46695 0 0
4.51604 0 0
4.51604 0 0
4.56513 0 0
4.56513 0 0
4.61421 0 0
4.61421 0 0
4.6633 0 0
4.6633 0 0
4.71239 0 0
4.71239 0 0
4.76148 0 0
4.76148 0 0
4.81056 0 0
4.81056 0 0
4.85965 0 0
4.85965 0 0
4.90874 0 0
4.90874 0 0
4.95783 0 0
4.95783 0 0
5.00691 0 0
5.00691 0 0
5.056 0 0
5.056 0 0
5.10509 0 0
5.10509 0 0
5.15418 0 0
5.15418 0 0
5.20326 0 0
5.20326 0 0
5.25235 0 0
5.25235 0 0
5.30144 0 0
5.30144 0 0
5.35052 0 0
5.35052 0 0
5.39961 0 0
5.39961 0 0
5.4487 0 0
5.4487 0 0
5.49779 0 0
5.49779 0 0
5.54687 0 0
5.54687 0 0
5.59596 0 0
5.59596 0 0
5.64505 0 0
5.64505 0 0
5.69414 0 0
5.69414 0 0
5.74322 0 0
5.74322 0 0
5.79231 0 0
5.79231 0 0
5.8414 0 0
5.8414 0 0
5.89049 0 0
5.89049 0 0
5.93957 0 0
5.93957 0 0
5.98866 0 0
5.98866 0 0
6.03775 0 0
6.03775 0 0
6.08684 0 0
6.08684 0 0
6.13592 0 0
6.13592 0 0
6.18501 0 0
6.18501 0 0
6.2341 0 0
6.2341 0 0
6.28319 0 0
6.28319 0 0
6.33227 0 0
6.33227 0 0
6.38136 0 0
6.38136 0 0
6.43045 0 0
6.43045 0 0
6.47953 0 0
6.47953 0 0
6.52862 0 0
6.52862 0 0
6.57771 0 0
6.57771 0 0
6.6268 0 0
6.6268 0 0
6.67588 0 0
6.67588 0 0
6.72497 0 0
6.72497 0 0
6.77406 0 0
6.77406 0 0
6.82315 0 0
6.82315 0 0
6.87223 0 0
6.87223 0 0
6.92132 0 0
6.92132 0 0
6.97041 0 0
6.97041 0 0
7.0195 0 0
7.0195 0 0
7.06858 0 0
7.06858 0 0
7.11767 0 0
7.11767 0 0
7.16676 0 0
7.16676 0 0
7.21585 0 0
7.21585 0 0
7.26493 0 0
7.26493 0 0
7.31402 0 0
7.31402 0 0
7.36311 0 0
7.36311 0 0
7.4122 0 0
7.4122 0 0
7.46128 0 0
7.46128 0 0
7.51037 0 0
7.51037 0 0
7.55946 0 0
7.55946 0 0
7.60854 0 0
7.60854 0 0
7.65763 0 0
7.65763 0 0
7.70672 0 0
7.70672 0 0
7.75581 0 0
7.75581 0 0
7.80489 0 0
7.80489 0 0
7.85398 0 0
7.85398 0 0
7.90307 0 0
7.90307 0 0
7.95216 0 0
7.95216 0 0
8.00124 0 0
8.00124 0 0
8.05033 0 0
8.05033 0 0
8.09942 0 0
8.09942 0 0
8.14851 0 0
8.14851 0 0
8.19759 0 0
8.19759 0 0
8.24668 0 0
8.24668 0 0
8.29577 0 0
8.29577 0 0
8.34486 0 0
8.34486 0 0
8.39394 0 0
8.39394 0 0
8.44303 0 0
8.44303 0 0
8.49212 0 0
8.49212 0 0
8.54121 0 0
8.54121 0 0
8.59029 0 0
8.59029 0 0
8.63938 0 0
8.63938 0 0
8.68847 0 0
8.68847 0 0
8.73755 0 0
8.73755 0 0
8.78664 0 0
8.78664 0 0
8.83573 0 0
8.83573 0 0
8.88482 0 0
8.88482 0 0
8.9339 0 0
8.9339 0 0
8.98299 0 0
8.98299 0 0
9.03208 0 0
9.03208 0 0
9.08117 0 0
9.08117 0 0
9.13025 0 0
9.13025 0 0
9.17934 0 0
9.17934 0 0
9.22843 0 0
9.22843 0 0
9.27752 0 0
9.27752 0 0
9.3266 0 0
9.3266 0 0
9.37569 0 0
9.37569 0 0
9.42478 0 0
9.42478 0 0
9.47387 0 0
9.47387 0 0
9.52295 0 0
9.52295 0 0
9.57204 0 0
9.57204 0 0
9.62113 0 0
9.62113 0 0
9.67021 0 0
9.67021 0 0
9.7193 0 0
9.7193 0 0
9.76839 0 0
9.76839 0 0
9.81748 0 0
9.81748 0 0
9.86656 0 0
9.86656 0 0
9.91565 0 0
9.91565 0 0
9.96474 0 0
9.96474 0 0
10.0138 0 0
10.0138 0 0
10.0629 0 0
10.0629 0 0
10.112 0 0
10.112 0 0
10.1611 0 0
10.1611 0 0
10.2102 0 0
10.2102 0 0
10.2593 0 0
10.2593 0 0
10.3084 0 0
10.3084 0 0
10.3574 0 0
10.3574 0 0
10.4065 0 0
10.4065 0 0
10.4556 0 0
10.4556 0 0
10.5047 0 0
10.5047 0 0
10.5538 0 0
10.5538 0 0
10.6029 0 0
10.6029 0 0
10.652 0 0
10.652 0 0
10.701 0 0
10.701 0 0
10.7501 0 0
10.7501 0 0
10.7992 0 0
10.7992 0 0
10.8483 0 0
10.8483 0 0
10.8974 0 0
10.8974 0 0
10.9465 0 0
10.9465 0 0
10.9956 0 0
10.9956 0 0
11.0447 0 0
11.0447 0 0
11.0937 0 0
11.0937 0 0
11.1428 0 0
11.1428 0 0
11.1919 0 0
11.1919 0 0
11.241 0 0
11.241 0 0
11.2901 0 0
11.2901 0 0
11.3392 0 0
11.3392 0 0
11.3883 0 0
11.3883 0 0
11.4374 0 0
11.4374 0 0
11.4864 0 0
11.4864 0 0
11.5355 0 0
11.5355 0 0
11.5846 0 0
11.5846 0 0
11.6337 0 0
11.6337 0 0
11.6828 0 0
11.6828 0 0
11.7319 0 0
11.7319 0 0
11.781 0 0
11.781 0 0
11.8301 0 0
11.8301 0 0
11.8791 0 0
11.8791 0 0
11.9282 0 0
11.9282 0 0
11.9773 0 0
11.9773 0 0
12.0264 0 0
12.0264 0 0
12.0755 0 0
12.0755 0 0
12.1246 0 0
12.1246 0 0
12.1737 0 0
12.1737 0 0
12.2228 0 0
12.2228 0 0
12.2718 0 0
12.2718 0 0
12.3209 0 0
12.3209 0 0
12.37 0 0
12.37 0 0
12.4191 0 0
12.4191 0 0
12.4682 0 0
12.4682 0 0
12.5173 0 0
12.5173 0 0
12.5664 0 0

CELLS 256 768
2	0	1
2	2	3
2	4	5
2	6	7
2	8	9
2	10	11
2	12	13
2	14	15
2	16	17
2	18	19
2	20	21
2	22	23
2	24	25
2	26	27
2	28	29
2	30	31
2	32	33
2	34	35
2	36	37
2	38	39
2	40	41
2	42	43
2	44	45
2	46	47
2	48	49
2	50	51
2	52	53
2	54	55
2	56	57
2	58	59
2	60	61
2	62	63
2	64	65
2	66	67
2	68	69
2	70	71
2	72	73
2	74	75
2	76	77
2	78	79
2	80	81
2	82	83
2	84	85
2	86	87
2	88	89
2	90	91
2	92	93
2	94	95
2	96	97
2	98	99
2	100	101
2	102	103
2	104	105
2	106	107
2	108	109
2	110	111
2	112	113
2	114	115
2	116	117
2	118	119
2	120	121
2	122	123
2	124	125
2	126	127
2	128	129
2	130	131
2	132	133
2	134	135
2	136	137
2	138	139
2	140	141
2	142	143
2	144	145
2	146	147
2	148	149
2	150	151
2	152	153
2	154	155
2	156	157
2	158	159
2	160	161
2	162	163
2	164	165
2	166	167
2	168	169
2	170	171
2	172	173
2	174	175
2	176	177
2	178	179
2	180	181
2	182	183
2	184	185
2	186	187
2	188	189
2	190	191
2	192	193
2	194	195
2	196	197
2	198	199
2	200	201
2	202	203
2	204	205
2	206	207
2	208	209
2	210	211
2	212	213
2	214	215
2	216	217
2	218	219
2	220	221
2	222	223
2	224	225
2	226	227
2	228	229
2	230	231
2	232	233
2	234	235
2	236	237
2	238	239
2	240	241
2	242	243
2	244	245
2	246	247
2	248	249
2	250	251
2	252	253
2	254	255
2	256	257
2	258	259
2	260	261
2	262	263
2	264	265
2	266	267
2	268	269
2	270	271
2	272	273
2	274	275
2	276	277
2	278	279
2	280	281
2	282	283
2	284	285
2	286	287
2	288	289
2	290	291
2	292	293
2	294	295
2	296	297
2	298	299
2	300	301
2	302	303
2	304	305
2	306	307
2	308	309
2	310	311
2	312	313
2	314	315
2	316	317
2	318	319
2	320	321
2	322	323
2	324	325
2	326	327
2	328	329
2	330	331
2	332	333
2	334	335
2	336	337
2	338	339
2	340	341
2	342	343
2	344	345
2	346	347
2	348	349
2	350	351
2	352	353
2	354	355
2	356	357
2	358	359
2	360	361
2	362	363
2	364	365
2	366	367
2	368	369
2	370	371
2	372	373
2	374	375
2	376	377
2	378	379
2	380	381
2	382	383
2	384	385
2	386	387
2	388	389
2	390	391
2	392	393
2	394	395
2	396	397
2	398	399
2	400	401
2	402	403
2	404	405
2	406	407
2	408	409
2	410	411
2	412	413
2	414	415
2	416	417
2	418	419
2	420	421
2	422	423
2	424	425
2	426	427
2	428	429
2	430	431
2	432	433
2	434	435
2	436	437
2	438	439
2	440	441
2	442	443
2	444	445
2	446	447
2	448	449
2	450	451
2	452	453
2	454	455
2	456	457
2	458	459
2	460	461
2	462	463
2	464	465
2	466	467
2	468	469
2	470	471
2	472	473
2	474	475
2	476	477
2	478	479
2	480	481
2	482	483
2	484	485
2	486	487
2	488	489
2	490	491
2	492	493
2	494	495
2	496	497
2	498	499
2	500	501
2	502	503
2	504	505
2	506	507
2	508	509
2	510	511

CELL_TYPES 256
 3 3 3 3 3 3 3 3 3 3 3 3 3 3 3 3 3 3 3 3 3 3 3 3 3 3 3 3 3 3 3 3 3 3 3 3 3 3 3 3 3 3 3 3 3 3 3 3 3 3 3 3 3 3 3 3 3 3 3 3 3 3 3 3 3 3 3 3 3 3 3 3 3 3 3 3 3 3 3 3 3 3 3 3 3 3 3 3 3 3 3 3 3 3 3 3 3 3 3 3 3 3 3 3 3 3 3 3 3 3 3 3 3 3 3 3 3 3 3 3 3 3 3 3 3 3 3 3 3 3 3 3 3 3 3 3 3 3 3 3 3 3 3 3 3 3 3 3 3 3 3 3 3 3 3 3 3 3 3 3 3 3 3 3 3 3 3 3 3 3 3 3 3 3 3 3 3 3 3 3 3 3 3 3 3 3 3 3 3 3 3 3 3 3 3 3 3 3 3 3 3 3 3 3 3 3 3 3 3 3 3 3 3 3 3 3 3 3 3 3 3 3 3 3 3 3 3 3 3 3 3 3 3 3 3 3 3 3 3 3 3 3 3 3 3 3 3 3 3 3 3 3 3 3 3 3
POINT_DATA 512
VECTORS electric_field double
-12.5407 0 0
-12.4916 0 0
-12.4916 0 0
-12.4426 0 0
-12.4426 0 0
-12.3935 0 0
-12.3935 0 0
-12.3444 0 0
-12.3444 0 0
-12.2953 0 0
-12.2953 0 0
-12.2462 0 0
-12.2462 0 0
-12.1971 0 0
-12.1971 0 0
-12.148 0 0
-12.148 0 0
-12.0989 0 0
-12.0989 0 0
-12.0499 0 0
-12.0499 0 0
-12.0008 0 0
-12.0008 0 0
-11.9517 0 0
-11.9517 0 0
-11.9026 0 0
-11.9026 0 0
-11.8535 0 0
-11.8535 0 0
-11.8044 0 0
-11.8044 0 0
-11.7553 0 0
-11.7553 0 0
-11.7062 0 0
-11.7062 0 0
-11.6572 0 0
-11.6572 0 0
-11.6081 0 0
-11.6081 0 0
-11.559 0 0
-11.559 0 0
-11.5099 0 0
-11.5099 0 0
-11.4608 0 0
-11.4608 0 0
-11.4117 0 0
-11.4117 0 0
-11.3626 0 0
-11.3626 0 0
-11.3135 0 0
-11.3135 0 0
-11.2645 0 0
-11.2645 0 0
-11.2154 0 0
-11.2154 0 0
-11.1663 0 0
-11.1663 0 0
-11.1172 0 0
-11.1172 0 0
-11.0681 0 0
-11.0681 0 0
-11.019 0 0
-11.019 0 0
-10.9699 0 0
-10.9699 0 0
-10.9208 0 0
-10.9208 0 0
-10.8718 0 0
-10.8718 0 0
-10.8227 0 0
-10.8227 0 0
-10.7736 0 0
-10.7736 0 0
-10.7245 0 0
-10.7245 0 0
-10.6754 0 0
-10.6754 0 0
-10.6263 0 0
-10.6263 0 0
-10.5772 0 0
-10.5772 0 0
-10.5281 0 0
-10.5281 0 0
-10.4791 0 0
-10.4791 0 0
-10.43 0 0
-10.43 0 0
-10.3809 0 0
-10.3809 0 0
-10.3318 0 0
-10.3318 0 0
-10.2827 0 0
-10.2827 0 0
-10.2336 0 0
-10.2336 0 0
-10.1845 0 0
-10.1845 0 0
-10.1355 0 0
-10.1355 0 0
-10.0864 0 0
-10.0864 0 0
-10.0373 0 0
-10.0373 0 0
-9.98819 0 0
-9.98819 0 0
-9.9391 0 0
-9.9391 0 0
-9.89001 0 0
-9.89001 0 0
-9.84093 0 0
-9.84093 0 0
-9.79184 0 0
-9.79184 0 0
-9.74275 0 0
-9.74275 0 0
-9.69366 0 0
-9.69366 0 0
-9.64458 0 0
-9.64458 0 0
-9.59549 0 0
-9.59549 0 0
-9.5464 0 0
-9.5464 0 0
-9.49731 0 0
-9.49731 0 0
-9.44823 0 0
-9.44823 0 0
-9.39914 0 0
-9.39914 0 0
-9.35005 0 0
-9.35005 0 0
-9.30096 0 0
-9.30096 0 0
-9.25188 0 0
-9.25188 0 0
-9.20279 0 0
-9.20279 0 0
-9.1537 0 0
-9.1537 0 0
-9.10462 0 0
-9.10462 0 0
-9.05553 0 0
-9.05553 0 0
-9.00644 0 0
-9.00644 0 0
-8.95735 0 0
-8.95735 0 0
-8.90827 0 0
-8.90827 0 0
-8.85918 0 0
-8.85918 0 0
-8.81009 0 0
-8.81009 0 0
-8.761 0 0
-8.761 0 0
-8.71192 0 0
-8.71192 0 0
-8.66283 0 0
-8.66283 0 0
-8.61374 0 0
-8.61374 0 0
-8.56465 0 0
-8.56465 0 0
-8.51557 0 0
-8.51557 0 0
-8.46648 0 0
-8.46648 0 0
-8.41739 0 0
-8.41739 0 0
-8.3683 0 0
-8.3683 0 0
-8.31922 0 0
-8.31922 0 0
-8.27013 0 0
-8.27013 0 0
-8.22104 0 0
-8.22104 0 0
-8.17196 0 0
-8.17196 0 0
-8.12287 0 0
-8.12287 0 0
-8.07378 0 0
-8.07378 0 0
-8.02469 0 0
-8.02469 0 0
-7.97561 0 0
-7.97561 0 0
-7.92652 0 0
-7.92652 0 0
-7.87743 0 0
-7.87743 0 0
-7.82834 0 0
-7.82834 0 0
-7.77926 0 0
-7.77926 0 0
-7.73017 0 0
-7.73017 0 0
-7.68108 0 0
-7.68108 0 0
-7.63199 0 0
-7.63199 0 0
-7.58291 0 0
-7.58291 0 0
-7.53382 0 0
-7.53382 0 0
-7.48473 0 0
-7.48473 0 0
-7.43564 0 0
-7.43564 0 0
-7.38656 0 0
-7.38656 0 0
-7.33747 0 0
-7.33747 0 0
-7.28838 0 0
-7.28838 0 0
-7.23929 0 0
-7.23929 0 0
-7.19021 0 0
-7.19021 0 0
-7.14112 0 0
-7.14112 0 0
-7.09203 0 0
-7.09203 0 0
-7.04294 0 0
-7.04294 0 0
-6.99386 0 0
-6.99386 0 0
-6.94477 0 0
-6.94477 0 0
-6.89568 0 0
-6.89568 0 0
-6.8466 0 0
-6.8466 0 0
-6.79751 0 0
-6.79751 0 0
-6.74842 0 0
-6.74842 0 0
-6.69933 0 0
-6.69933 0 0
-6.65025 0 0
-6.65025 0 0
-6.60116 0 0
-6.60116 0 0
-6.55207 0 0
-6.55207 0 0
-6.50298 0 0
-6.50298 0 0
-6.4539 0 0
-6.4539 0 0
-6.40481 0 0
-6.40481 0 0
-6.35572 0 0
-6.35572 0 0
-6.30663 0 0
-6.30663 0 0
-6.25755 0 0
-6.25755 0 0
-6.20846 0 0
-6.20846 0 0
-6.15937 0 0
-6.15937 0 0
-6.11028 0 0
-6.11028 0 0
-6.0612 0 0
-6.0612 0 0
-6.01211 0 0
-6.01211 0 0
-5.96302 0 0
-5.96302 0 0
-5.91394 0 0
-5.91394 0 0
-5.86485 0 0
-5.86485 0 0
-5.81576 0 0
-5.81576 0 0
-5.76667 0 0
-5.76667 0 0
-5.71759 0 0
-5.71759 0 0
-5.6685 0 0
-5.6685 0 0
-5.61941 0 0
-5.61941 0 0
-5.57032 0 0
-5.57032 0 0
-5.52124 0 0
-5.52124 0 0
-5.47215 0 0
-5.47215 0 0
-5.42306 0 0
-5.42306 0 0
-5.37397 0 0
-5.37397 0 0
-5.32489 0 0
-5.32489 0 0
-5.2758 0 0
-5.2758 0 0
-5.22671 0 0
-5.22671 0 0
-5.17762 0 0
-5.17762 0 0
-5.12854 0 0
-5.12854 0 0
-5.07945 0 0
-5.07945 0 0
-5.03036 0 0
-5.03036 0 0
-4.98127 0 0
-4.98127 0 0
-4.93219 0 0
-4.93219 0 0
-4.8831 0 0
-4.8831 0 0
-4.83401 0 0
-4.83401 0 0
-4.78492 0 0
-4.78492 0 0
-4.73584 0 0
-4.73584 0 0
-4.68675 0 0
-4.68675 0 0
-4.63766 0 0
-4.63766 0 0
-4.58858 0 0
-4.58858 0 0
-4.53949 0 0
-4.53949 0 0
-4.4904 0 0
-4.4904 0 0
-4.44131 0 0
-4.44131 0 0
-4.39223 0 0
-4.39223 0 0
-4.34314 0 0
-4.34314 0 0
-4.29405 0 0
-4.29405 0 0
-4.24496 0 0
-4.24496 0 0
-4.19588 0 0
-4.19588 0 0
-4.14679 0 0
-4.14679 0 0
-4.0977 0 0
-4.0977 0 0
-4.04861 0 0
-4.04861 0 0
-3.99953 0 0
-3.99953 0 0
-3.95044 0 0
-3.95044 0 0
-3.90135 0 0
-3.90135 0 0
-3.85226 0 0
-3.85226 0 0
-3.80318 0 0
-3.80318 0 0
-3.75409 0 0
-3.75409 0 0
-3.705 0 0
-3.705 0 0
-3.65592 0 0
-3.65592 0 0
-3.60683 0 0
-3.60683 0 0
-3.55774 0 0
-3.55774 0 0
-3.50865 0 0
-3.50865 0 0
-3.45957 0 0
-3.45957 0 0
-3.41048 0 0
-3.41048 0 0
-3.36139 0 0
-3.36139 0 0
-3.3123 0 0
-3.3123 0 0
-3.26322 0 0
-3.26322 0 0
-3.21413 0 0
-3.21413 0 0
-3.16504 0 0
-3.16504 0 0
-3.11595 0 0
-3.11595 0 0
-3.06687 0 0
-3.06687 0 0
-3.01778 0 0
-3.01778 0 0
-2.96869 0 0
-2.96869 0 0
-2.9196 0 0
-2.9196 0 0
-2.87052 0 0
-2.87052 0 0
-2.82143 0 0
-2.82143 0 0
-2.77234 0 0
-2.77234 0 0
-2.72325 0 0
-2.72325 0 0
-2.67417 0 0
-2.67417 0 0
-2.62508 0 0
-2.62508 0 0
-2.57599 0 0
-2.57599 0 0
-2.52691 0 0
-2.52691 0 0
-2.47782 0 0
-2.47782 0 0
-2.42873 0 0
-2.42873 0 0
-2.37964 0 0
-2.37964 0 0
-2.33056 0 0
-2.33053 0 0
-2.28154 0 0
-2.28154 0 0
-2.23246 0 0
-2.23246 0 0
-2.18337 0 0
-2.18337 0 0
-2.13428 0 0
-2.13428 0 0
-2.08519 0 0
-2.08519 0 0
-2.03611 0 0
-2.03611 0 0
-1.98702 0 0
-1.98702 0 0
-1.93793 0 0
-1.93793 0 0
-1.88884 0 0
-1.88884 0 0
-1.83976 0 0
-1.83976 0 0
-1.79067 0 0
-1.79067 0 0
-1.74158 0 0
-1.74158 0 0
-1.69249 0 0
-1.69249 0 0
-1.64341 0 0
-1.64341 0 0
-1.59432 0 0
-1.59432 0 0
-1.54523 0 0
-1.54523 0 0
-1.49614 0 0
-1.49614 0 0
-1.44706 0 0
-1.44706 0 0
-1.39797 0 0
-1.39797 0 0
-1.34888 0 0
-1.34888 0 0
-1.29979 0 0
-1.29979 0 0
-1.25071 0 0
-1.25071 0 0
-1.20162 0 0
-1.20162 0 0
-1.15254 0 0
-1.15254 0 0
-1.10345 0 0
-1.10345 0 0
-1.05437 0 0
-1.05437 0 0
-1.00529 0 0
-1.00529 0 0
-0.956198 0 0
-0.956198 0 0
-0.907111 0 0
-0.907111 0 0
-0.858025 0 0
-0.858028 0 0
-0.80913 0 0
-0.809078 0 0
-0.759994 0 0
-0.760008 0 0
-0.710956 0 0
-0.710953 0 0
-0.661968 0 0
-0.661943 0 0
-0.612906 0 0
-0.612878 0 0
-0.564023 0 0
-0.564038 0 0
-0.51533 0 0
-0.515363 0 0
-0.467097 0 0
-0.467126 0 0
-0.418825 0 0
-0.418831 0 0
-0.370946 0 0
-0.370984 0 0
-0.323774 0 0
-0.323752 0 0
-0.27728 0 0
-0.277293 0 0
-0.231282 0 0
-0.231302 0 0
-0.186004 0 0
-0.186039 0 0
-0.141609 0 0
-0.141601 0 0
-0.0981787 0 0
-0.0981748 0 0
-0.0490874 0 0
-0.0490874 0 0
-2.54659e-11 0 0
SCALARS potential double 1
LOOKUP_TABLE default
0 0.614387 0.614387 1.22636 1.22636 1.83593 1.83593 2.44309 2.44309 3.04784 3.04784 3.65018 3.65018 4.25011 4.25011 4.84763 4.84763 5.44274 5.44274 6.03544 6.03544 6.62573 6.62573 7.21361 7.21361 7.79908 7.79908 8.38215 8.38215 8.9628 8.9628 9.54104 9.54104 10.1169 10.1169 10.6903 10.6903 11.2613 11.2613 11.8299 11.8299 12.3961 12.3961 12.9599 12.9599 13.5213 13.5213 14.0802 14.0802 14.6368 14.6368 15.191 15.191 15.7427 15.7427 16.292 16.292 16.8389 16.8389 17.3834 17.3834 17.9255 17.9255 18.4652 18.4652 19.0025 19.0025 19.5374 19.5374 20.0698 20.0698 20.5999 20.5999 21.1275 21.1275 21.6528 21.6528 22.1756 22.1756 22.696 22.696 23.214 23.214 23.7296 23.7296 24.2428 24.2428 24.7536 24.7536 25.2619 25.2619 25.7679 25.7679 26.2714 26.2714 26.7726 26.7726 27.2713 27.2713 27.7676 27.7676 28.2615 28.2615 28.753 28.753 29.2421 29.2421 29.7288 29.7288 30.2131 30.2131 30.6949 30.6949 31.1744 31.1744 31.6514 31.6514 32.1261 32.1261 32.5983 32.5983 33.0681 33.0681 33.5355 33.5355 34.0005 34.0005 34.4631 34.4631 34.9232 34.9232 35.381 35.381 35.8364 35.8364 36.2893 36.2893 36.7398 36.7398 37.188 37.188 37.6337 37.6337 38.077 38.077 38.5179 38.5179 38.9564 38.9564 39.3925 39.3925 39.8261 39.8261 40.2574 40.2574 40.6862 40.6862 41.1127 41.1127 41.5367 41.5367 41.9583 41.9583 42.3775 42.3775 42.7943 42.7943 43.2087 43.2087 43.6207 43.6207 44.0303 44.0303 44.4375 44.4375 44.8422 44.8422 45.2446 45.2446 45.6445 45.6445 46.042 46.042 46.4371 46.4371 46.8298 46.8298 47.2201 47.2201 47.608 47.608 47.9935 47.9935 48.3766 48.3766 48.7572 48.7572 49.1355 49.1355 49.5113 49.5113 49.8847 49.8847 50.2558 50.2558 50.6244 50.6244 50.9906 50.9906 51.3544 51.3544 51.7158 51.7158 52.0747 52.0747 52.4313 52.4313 52.7854 52.7854 53.1372 53.1372 53.4865 53.4865 53.8334 53.8334 54.178 54.178 54.5201 54.5201 54.8598 54.8598 55.197 55.197 55.5319 55.5319 55.8644 55.8644 56.1944 56.1944 56.5221 56.5221 56.8473 56.8473 57.1702 57.1702 57.4906 57.4906 57.8086 57.8086 58.1242 58.1242 58.4374 58.4374 58.7482 58.7482 59.0565 59.0565 59.3625 59.3625 59.666 59.666 59.9672 59.9672 60.2659 60.2659 60.5622 60.5622 60.8562 60.8562 61.1477 61.1477 61.4368 61.4368 61.7234 61.7234 62.0077 62.0077 62.2896 62.2896 62.569 62.569 62.8461 62.8461 63.1207 63.1207 63.393 63.393 63.6628 63.6628 63.9302 63.9302 64.1952 64.1952 64.4578 64.4578 64.7179 64.7179 64.9757 64.9757 65.2311 65.2311 65.484 65.484 65.7346 65.7346 65.9827 65.9827 66.2284 66.2284 66.4717 66.4717 66.7126 66.7126 66.9511 66.9511 67.1872 67.1872 67.4209 67.4209 67.6522 67.6522 67.881 67.881 68.1075 68.1075 68.3315 68.3315 68.5531 68.5531 68.7723 68.7723 68.9892 68.9892 69.2036 69.2036 69.4155 69.4155 69.6251 69.6251 69.8323 69.8323 70.037 70.037 70.2394 70.2394 70.4393 70.4393 70.6369 70.6369 70.832 70.832 71.0247 71.0247 71.215 71.215 71.4029 71.4029 71.5884 71.5884 71.7715 71.7715 71.9521 71.9521 72.1304 72.1304 72.3062 72.3062 72.4797 72.4797 72.6507 72.6507 72.8193 72.8193 72.9855 72.9855 73.1493 73.1493 73.3107 73.3107 73.4697 73.4697 73.6262 73.6262 73.7804 73.7804 73.9321 73.9321 74.0815 74.0815 74.2284 74.2284 74.3729 74.3729 74.515 74.515 74.6547 74.6547 74.792 74.792 74.9269 74.9269 75.0594 75.0594 75.1895 75.1895 75.3171 75.3171 75.4424 75.4424 75.5652 75.5652 75.6856 75.6856 75.8036 75.8036 75.9192 75.9192 76.0324 76.0324 76.1432 76.1432 76.2516 76.2516 76.3576 76.3576 76.4611 76.4611 76.5623 76.5623 76.661 76.661 76.7574 76.7574 76.8513 76.8513 76.9428 76.9428 77.0319 77.0319 77.1186 77.1186 77.2029 77.2029 77.2848 77.2848 77.3642 77.3642 77.4413 77.4413 77.5159 77.5159 77.5882 77.5882 77.658 77.658 77.7254 77.7254 77.7904 77.7904 77.853 77.853 77.9132 77.9132 77.971 77.971 78.0264 78.0264 78.0793 78.0793 78.1299 78.1299 78.178 78.178 78.2237 78.2237 78.2671 78.2671 78.308 78.308 78.3465 78.3465 78.3826 78.3826 78.4163 78.4163 78.4476 78.4476 78.4765 78.4765 78.503 78.503 78.5271 78.5271 78.5488 78.5488 78.5682 78.5682 78.5852 78.5852 78.6 78.6 78.6125 78.6125 78.6227 78.6227 78.6307 78.6307 78.6366 78.6366 78.6402 78.6402 78.6414 
SCALARS x_coordinate double 1
LOOKUP_TABLE default
0 0.0490874 0.0490874 0.0981748 0.0981748 0.147262 0.147262 0.19635 0.19635 0.245437 0.245437 0.294524 0.294524 0.343612 0.343612 0.392699 0.392699 0.441786 0.441786 0.490874 0.490874 0.539961 0.539961 0.589049 0.589049 0.638136 0.638136 0.687223 0.687223 0.736311 0.736311 0.785398 0.785398 0.834486 0.834486 0.883573 0.883573 0.93266 0.93266 0.981748 0.981748 1.03084 1.03084 1.07992 1.07992 1.12901 1.12901 1.1781 1.1781 1.22718 1.22718 1.27627 1.27627 1.32536 1.32536 1.37445 1.37445 1.42353 1.42353 1.47262 1.47262 1.52171 1.52171 1.5708 1.5708 1.61988 1.61988 1.66897 1.66897 1.71806 1.71806 1.76715 1.76715 1.81623 1.81623 1.86532 1.86532 1.91441 1.91441 1.9635 1.9635 2.01258 2.01258 2.06167 2.06167 2.11076 2.11076 2.15984 2.15984 2.20893 2.20893 2.25802 2.25802 2.30711 2.30711 2.35619 2.35619 2.40528 2.40528 2.45437 2.45437 2.50346 2.50346 2.55254 2.55254 2.60163 2.60163 2.65072 2.65072 2.69981 2.69981 2.74889 2.74889 2.79798 2.79798 2.84707 2.84707 2.89616 2.89616 2.94524 2.94524 2.99433 2.99433 3.04342 3.04342 3.09251 3.09251 3.14159 3.14159 3.19068 3.19068 3.23977 3.23977 3.28885 3.28885 3.33794 3.33794 3.38703 3.38703 3.43612 3.43612 3.4852 3.4852 3.53429 3.53429 3.58338 3.58338 3.63247 3.63247 3.68155 3.68155 3.73064 3.73064 3.77973 3.77973 3.82882 3.82882 3.8779 3.8779 3.92699 3.92699 3.97608 3.97608 4.02517 4.02517 4.07425 4.07425 4.12334 4.12334 4.17243 4.17243 4.22152 4.22152 4.2706 4.2706 4.31969 4.31969 4.36878 4.36878 4.41786 4.41786 4.46695 4.46695 4.51604 4.51604 4.56513 4.56513 4.61421 4.61421 4.6633 4.6633 4.71239 4.71239 4.76148 4.76148 4.81056 4.81056 4.85965 4.85965 4.90874 4.90874 4.95783 4.95783 5.00691 5.00691 5.056 5.056 5.10509 5.10509 5.15418 5.15418 5.20326 5.20326 5.25235 5.25235 5.30144 5.30144 5.35052 5.35052 5.39961 5.39961 5.4487 5.4487 5.49779 5.49779 5.54687 5.54687 5.59596 5.59596 5.64505 5.64505 5.69414 5.69414 5.74322 5.74322 5.79231 5.79231 5.8414 5.8414 5.89049 5.89049 5.93957 5.93957 5.98866 5.98866 6.03775 6.03775 6.08684 6.08684 6.13592 6.13592 6.18501 6.18501 6.2341 6.2341 6.28319 6.28319 6.33227 6.33227 6.38136 6.38136 6.43045 6.43045 6.47953 6.47953 6.52862 6.52862 6.57771 6.57771 6.6268 6.6268 6.67588 6.67588 6.72497 6.72497 6.77406 6.77406 6.82315 6.82315 6.87223 6.87223 6.92132 6.92132 6.97041 6.97041 7.0195 7.0195 7.06858 7.06858 7.11767 7.11767 7.16676 7.16676 7.21585 7.21585 7.26493 7.26493 7.31402 7.31402 7.36311 7.36311 7.4122 7.4122 7.46128 7.46128 7.51037 7.51037 7.55946 7.55946 7.60854 7.60854 7.65763 7.65763 7.70672 7.70672 7.75581 7.75581 7.80489 7.80489 7.85398 7.85398 7.90307 7.90307 7.95216 7.95216 8.00124 8.00124 8.05033 8.05033 8.09942 8.09942 8.14851 8.14851 8.19759 8.19759 8.24668 8.24668 8.29577 8.29577 8.34486 8.34486 8.39394 8.39394 8.44303 8.44303 8.49212 8.49212 8.54121 8.54121 8.59029 8.59029 8.63938 8.63938 8.68847 8.68847 8.73755 8.73755 8.78664 8.78664 8.83573 8.83573 8.88482 8.88482 8.9339 8.9339 8.98299 8.98299 9.03208 9.03208 9.08117 9.08117 9.13025 9.13025 9.17934 9.17934 9.22843 9.22843 9.27752 9.27752 9.3266 9.3266 9.37569 9.37569 9.42478 9.42478 9.47387 9.47387 9.52295 9.52295 9.57204 9.57204 9.62113 9.62113 9.67021 9.67021 9.7193 9.7193 9.76839 9.76839 9.81748 9.81748 9.86656 9.86656 9.91565 9.91565 9.96474 9.96474 10.0138 10.0138 10.0629 10.0629 10.112 10.112 10.1611 10.1611 10.2102 10.2102 10.2593 10.2593 10.3084 10.3084 10.3574 10.3574 10.4065 10.4065 10.4556 10.4556 10.5047 10.5047 10.5538 10.5538 10.6029 10.6029 10.652 10.652 10.701 10.701 10.7501 10.7501 10.7992 10.7992 10.8483 10.8483 10.8974 10.8974 10.9465 10.9465 10.9956 10.9956 11.0447 11.0447 11.0937 11.0937 11.1428 11.1428 11.1919 11.1919 11.241 11.241 11.2901 11.2901 11.3392 11.3392 11.3883 11.3883 11.4374 11.4374 11.4864 11.4864 11.5355 11.5355 11.5846 11.5846 11.6337 11.6337 11.6828 11.6828 11.7319 11.7319 11.781 11.781 11.8301 11.8301 11.8791 11.8791 11.9282 11.9282 11.9773 11.9773 12.0264 12.0264 12.0755 12.0755 12.1246 12.1246 12.1737 12.1737 12.2228 12.2228 12.2718 12.2718 12.3209 12.3209 12.37 12.37 12.4191 12.4191 12.4682 12.4682 12.5173 12.5173 12.5664 
