# vtk DataFile Version 3.0
#This file was generated by the deal.II library on 2026/3/10 at 19:07:02
ASCII
DATASET UNSTRUCTURED_GRID

POINTS 512 double
0 0 0
0.0490874 0 0
0.0490874 0 0
0.0981748 0 0
0.0981748 0 0
0.147262 0 0
0.147262 0 0
0.19635 0 0
0.19635 0 0
0.245437 0 0
0.245437 0 0
0.294524 0 0
0.294524 0 0
0.343612 0 0
0.343612 0 0
0.392699 0 0
0.392699 0 0
0.441786 0 0
0.441786 0 0
0.490874 0 0
0.490874 0 0
0.539961 0 0
0.539961 0 0
0.589049 0 0
0.589049 0 0
0.638136 0 0
0.638136 0 0
0.687223 0 0
0.687223 0 0
0.736311 0 0
0.736311 0 0
0.785398 0 0
0.785398 0 0
0.834486 0 0
0.834486 0 0
0.883573 0 0
0.883573 0 0
0.93266 0 0
0.93266 0 0
0.981748 0 0
0.981748 0 0
1.03084 0 0
1.03084 0 0
1.07992 0 0
1.07992 0 0
1.12901 0 0
1.12901 0 0
1.1781 0 0
1.1781 0 0
1.22718 0 0
1.22718 0 0
1.27627 0 0
1.27627 0 0
1.32536 0 0
1.32536 0 0
1.37445 0 0
1.37445 0 0
1.42353 0 0
1.42353 0 0
1.47262 0 0
1.47262 0 0
1.52171 0 0
1.52171 0 0
1.5708 0 0
1.5708 0 0
1.61988 0 0
1.61988 0 0
1.66897 0 0
1.66897 0 0
1.71806 0 0
1.71806 0 0
1.76715 0 0
1.76715 0 0
1.81623 0 0
1.81623 0 0
1.86532 0 0
1.86532 0 0
1.91441 0 0
1.91441 0 0
1.9635 0 0
1.9635 0 0
2.01258 0 0
2.01258 0 0
2.06167 0 0
2.06167 0 0
2.11076 0 0
2.11076 0 0
2.15984 0 0
2.15984 0 0
2.20893 0 0
2.20893 0 0
2.25802 0 0
2.25802 0 0
2.30711 0 0
2.30711 0 0
2.35619 0 0
2.35619 0 0
2.40528 0 0
2.40528 0 0
2.45437 0 0
2.45437 0 0
2.50346 0 0
2.50346 0 0
2.55254 0 0
2.55254 0 0
2.60163 0 0
2.60163 0 0
2.65072 0 0
2.65072 0 0
2.69981 0 0
2.69981 0 0
2.74889 0 0
2.74889 0 0
2.79798 0 0
2.79798 0 0
2.84707 0 0
2.84707 0 0
2.89616 0 0
2.89616 0 0
2.94524 0 0
2.94524 0 0
2.99433 0 0
2.99433 0 0
3.04342 0 0
3.04342 0 0
3.09251 0 0
3.09251 0 0
3.14159 0 0
3.14159 0 0
3.19068 0 0
3.19068 0 0
3.23977 0 0
3.23977 0 0
3.28885 0 0
3.28885 0 0
3.33794 0 0
3.33794 0 0
3.38703 0 0
3.38703 0 0
3.43612 0 0
3.43612 0 0
3.4852 0 0
3.4852 0 0
3.53429 0 0
3.53429 0 0
3.58338 0 0
3.58338 0 0
3.63247 0 0
3.63247 0 0
3.68155 0 0
3.68155 0 0
3.73064 0 0
3.73064 0 0
3.77973 0 0
3.77973 0 0
3.82882 0 0
3.82882 0 0
3.8779 0 0
3.8779 0 0
3.92699 0 0
3.92699 0 0
3.97608 0 0
3.97608 0 0
4.02517 0 0
4.02517 0 0
4.07425 0 0
4.07425 0 0
4.12334 0 0
4.12334 0 0
4.17243 0 0
4.17243 0 0
4.22152 0 0
4.22152 0 0
4.2706 0 0
4.2706 0 0
4.31969 0 0
4.31969 0 0
4.36878 0 0
4.36878 0 0
4.41786 0 0
4.41786 0 0
4.46695 0 0
4.46695 0 0
4.51604 0 0
4.51604 0 0
4.56513 0 0
4.56513 0 0
4.61421 0 0
4.61421 0 0
4.6633 0 0
4.6633 0 0
4.71239 0 0
4.71239 0 0
4.76148 0 0
4.76148 0 0
4.81056 0 0
4.81056 0 0
4.85965 0 0
4.85965 0 0
4.90874 0 0
4.90874 0 0
4.95783 0 0
4.95783 0 0
5.00691 0 0
5.00691 0 0
5.056 0 0
5.056 0 0
5.10509 0 0
5.10509 0 0
5.15418 0 0
5.15418 0 0
5.20326 0 0
5.20326 0 0
5.25235 0 0
5.25235 0 0
5.30144 0 0
5.30144 0 0
5.35052 0 0
5.35052 0 0
5.39961 0 0
5.39961 0 0
5.4487 0 0
5.4487 0 0
5.49779 0 0
5.49779 0 0
5.54687 0 0
5.54687 0 0
5.59596 0 0
5.59596 0 0
5.64505 0 0
5.64505 0 0
5.69414 0 0
5.69414 0 0
5.74322 0 0
5.74322 0 0
5.79231 0 0
5.79231 0 0
5.8414 0 0
5.8414 0 0
5.89049 0 0
5.89049 0 0
5.93957 0 0
5.93957 0 0
5.98866 0 0
5.98866 0 0
6.03775 0 0
6.03775 0 0
6.08684 0 0
6.08684 0 0
6.13592 0 0
6.13592 0 0
6.18501 0 0
6.18501 0 0
6.2341 0 0
6.2341 0 0
6.28319 0 0
6.28319 0 0
6.33227 0 0
6.33227 0 0
6.38136 0 0
6.38136 0 0
6.43045 0 0
6.43045 0 0
6.47953 0 0
6.47953 0 0
6.52862 0 0
6.52862 0 0
6.57771 0 0
6.57771 0 0
6.6268 0 0
6.6268 0 0
6.67588 0 0
6.67588 0 0
6.72497 0 0
6.72497 0 0
6.77406 0 0
6.77406 0 0
6.82315 0 0
6.82315 0 0
6.87223 0 0
6.87223 0 0
6.92132 0 0
6.92132 0 0
6.97041 0 0
6.97041 0 0
7.0195 0 0
7.0195 0 0
7.06858 0 0
7.06858 0 0
7.11767 0 0
7.11767 0 0
7.16676 0 0
7.16676 0 0
7.21585 0 0
7.21585 0 0
7.26493 0 0
7.26493 0 0
7.31402 0 0
7.31402 0 0
7.36311 0 0
7.36311 0 0
7.4122 0 0
7.4122 0 0
7.46128 0 0
7.46128 0 0
7.51037 0 0
7.51037 0 0
7.55946 0 0
7.55946 0 0
7.60854 0 0
7.60854 0 0
7.65763 0 0
7.65763 0 0
7.70672 0 0
7.70672 0 0
7.75581 0 0
7.75581 0 0
7.80489 0 0
7.80489 0 0
7.85398 0 0
7.85398 0 0
7.90307 0 0
7.90307 0 0
7.95216 0 0
7.95216 0 0
8.00124 0 0
8.00124 0 0
8.05033 0 0
8.05033 0 0
8.09942 0 0
8.09942 0 0
8.14851 0 0
8.14851 0 0
8.19759 0 0
8.19759 0 0
8.24668 0 0
8.24668 0 0
8.29577 0 0
8.29577 0 0
8.34486 0 0
8.34486 0 0
8.39394 0 0
8.39394 0 0
8.44303 0 0
8.44303 0 0
8.49212 0 0
8.49212 0 0
8.54121 0 0
8.54121 0 0
8.59029 0 0
8.59029 0 0
8.63938 0 0
8.63938 0 0
8.68847 0 0
8.68847 0 0
8.73755 0 0
8.73755 0 0
8.78664 0 0
8.78664 0 0
8.83573 0 0
8.83573 0 0
8.88482 0 0
8.88482 0 0
8.9339 0 0
8.9339 0 0
8.98299 0 0
8.98299 0 0
9.03208 0 0
9.03208 0 0
9.08117 0 0
9.08117 0 0
9.13025 0 0
9.13025 0 0
9.17934 0 0
9.17934 0 0
9.22843 0 0
9.22843 0 0
9.27752 0 0
9.27752 0 0
9.3266 0 0
9.3266 0 0
9.37569 0 0
9.37569 0 0
9.42478 0 0
9.42478 0 0
9.47387 0 0
9.47387 0 0
9.52295 0 0
9.52295 0 0
9.57204 0 0
9.57204 0 0
9.62113 0 0
9.62113 0 0
9.67021 0 0
9.67021 0 0
9.7193 0 0
9.7193 0 0
9.76839 0 0
9.76839 0 0
9.81748 0 0
9.81748 0 0
9.86656 0 0
9.86656 0 0
9.91565 0 0
9.91565 0 0
9.96474 0 0
9.96474 0 0
10.0138 0 0
10.0138 0 0
10.0629 0 0
10.0629 0 0
10.112 0 0
10.112 0 0
10.1611 0 0
10.1611 0 0
10.2102 0 0
10.2102 0 0
10.2593 0 0
10.2593 0 0
10.3084 0 0
10.3084 0 0
10.3574 0 0
10.3574 0 0
10.4065 0 0
10.4065 0 0
10.4556 0 0
10.4556 0 0
10.5047 0 0
10.5047 0 0
10.5538 0 0
10.5538 0 0
10.6029 0 0
10.6029 0 0
10.652 0 0
10.652 0 0
10.701 0 0
10.701 0 0
10.7501 0 0
10.7501 0 0
10.7992 0 0
10.7992 0 0
10.8483 0 0
10.8483 0 0
10.8974 0 0
10.8974 0 0
10.9465 0 0
10.9465 0 0
10.9956 0 0
10.9956 0 0
11.0447 0 0
11.0447 0 0
11.0937 0 0
11.0937 0 0
11.1428 0 0
11.1428 0 0
11.1919 0 0
11.1919 0 0
11.241 0 0
11.241 0 0
11.2901 0 0
11.2901 0 0
11.3392 0 0
11.3392 0 0
11.3883 0 0
11.3883 0 0
11.4374 0 0
11.4374 0 0
11.4864 0 0
11.4864 0 0
11.5355 0 0
11.5355 0 0
11.5846 0 0
11.5846 0 0
11.6337 0 0
11.6337 0 0
11.6828 0 0
11.6828 0 0
11.7319 0 0
11.7319 0 0
11.781 0 0
11.781 0 0
11.8301 0 0
11.8301 0 0
11.8791 0 0
11.8791 0 0
11.9282 0 0
11.9282 0 0
11.9773 0 0
11.9773 0 0
12.0264 0 0
12.0264 0 0
12.0755 0 0
12.0755 0 0
12.1246 0 0
12.1246 0 0
12.1737 0 0
12.1737 0 0
12.2228 0 0
12.2228 0 0
12.2718 0 0
12.2718 0 0
12.3209 0 0
12.3209 0 0
12.37 0 0
12.37 0 0
12.4191 0 0
12.4191 0 0
12.4682 0 0
12.4682 0 0
12.5173 0 0
12.5173 0 0
12.5664 0 0

CELLS 256 768
2	0	1
2	2	3
2	4	5
2	6	7
2	8	9
2	10	11
2	12	13
2	14	15
2	16	17
2	18	19
2	20	21
2	22	23
2	24	25
2	26	27
2	28	29
2	30	31
2	32	33
2	34	35
2	36	37
2	38	39
2	40	41
2	42	43
2	44	45
2	46	47
2	48	49
2	50	51
2	52	53
2	54	55
2	56	57
2	58	59
2	60	61
2	62	63
2	64	65
2	66	67
2	68	69
2	70	71
2	72	73
2	74	75
2	76	77
2	78	79
2	80	81
2	82	83
2	84	85
2	86	87
2	88	89
2	90	91
2	92	93
2	94	95
2	96	97
2	98	99
2	100	101
2	102	103
2	104	105
2	106	107
2	108	109
2	110	111
2	112	113
2	114	115
2	116	117
2	118	119
2	120	121
2	122	123
2	124	125
2	126	127
2	128	129
2	130	131
2	132	133
2	134	135
2	136	137
2	138	139
2	140	141
2	142	143
2	144	145
2	146	147
2	148	149
2	150	151
2	152	153
2	154	155
2	156	157
2	158	159
2	160	161
2	162	163
2	164	165
2	166	167
2	168	169
2	170	171
2	172	173
2	174	175
2	176	177
2	178	179
2	180	181
2	182	183
2	184	185
2	186	187
2	188	189
2	190	191
2	192	193
2	194	195
2	196	197
2	198	199
2	200	201
2	202	203
2	204	205
2	206	207
2	208	209
2	210	211
2	212	213
2	214	215
2	216	217
2	218	219
2	220	221
2	222	223
2	224	225
2	226	227
2	228	229
2	230	231
2	232	233
2	234	235
2	236	237
2	238	239
2	240	241
2	242	243
2	244	245
2	246	247
2	248	249
2	250	251
2	252	253
2	254	255
2	256	257
2	258	259
2	260	261
2	262	263
2	264	265
2	266	267
2	268	269
2	270	271
2	272	273
2	274	275
2	276	277
2	278	279
2	280	281
2	282	283
2	284	285
2	286	287
2	288	289
2	290	291
2	292	293
2	294	295
2	296	297
2	298	299
2	300	301
2	302	303
2	304	305
2	306	307
2	308	309
2	310	311
2	312	313
2	314	315
2	316	317
2	318	319
2	320	321
2	322	323
2	324	325
2	326	327
2	328	329
2	330	331
2	332	333
2	334	335
2	336	337
2	338	339
2	340	341
2	342	343
2	344	345
2	346	347
2	348	349
2	350	351
2	352	353
2	354	355
2	356	357
2	358	359
2	360	361
2	362	363
2	364	365
2	366	367
2	368	369
2	370	371
2	372	373
2	374	375
2	376	377
2	378	379
2	380	381
2	382	383
2	384	385
2	386	387
2	388	389
2	390	391
2	392	393
2	394	395
2	396	397
2	398	399
2	400	401
2	402	403
2	404	405
2	406	407
2	408	409
2	410	411
2	412	413
2	414	415
2	416	417
2	418	419
2	420	421
2	422	423
2	424	425
2	426	427
2	428	429
2	430	431
2	432	433
2	434	435
2	436	437
2	438	439
2	440	441
2	442	443
2	444	445
2	446	447
2	448	449
2	450	451
2	452	453
2	454	455
2	456	457
2	458	459
2	460	461
2	462	463
2	464	465
2	466	467
2	468	469
2	470	471
2	472	473
2	474	475
2	476	477
2	478	479
2	480	481
2	482	483
2	484	485
2	486	487
2	488	489
2	490	491
2	492	493
2	494	495
2	496	497
2	498	499
2	500	501
2	502	503
2	504	505
2	506	507
2	508	509
2	510	511

CELL_TYPES 256
 3 3 3 3 3 3 3 3 3 3 3 3 3 3 3 3 3 3 3 3 3 3 3 3 3 3 3 3 3 3 3 3 3 3 3 3 3 3 3 3 3 3 3 3 3 3 3 3 3 3 3 3 3 3 3 3 3 3 3 3 3 3 3 3 3 3 3 3 3 3 3 3 3 3 3 3 3 3 3 3 3 3 3 3 3 3 3 3 3 3 3 3 3 3 3 3 3 3 3 3 3 3 3 3 3 3 3 3 3 3 3 3 3 3 3 3 3 3 3 3 3 3 3 3 3 3 3 3 3 3 3 3 3 3 3 3 3 3 3 3 3 3 3 3 3 3 3 3 3 3 3 3 3 3 3 3 3 3 3 3 3 3 3 3 3 3 3 3 3 3 3 3 3 3 3 3 3 3 3 3 3 3 3 3 3 3 3 3 3 3 3 3 3 3 3 3 3 3 3 3 3 3 3 3 3 3 3 3 3 3 3 3 3 3 3 3 3 3 3 3 3 3 3 3 3 3 3 3 3 3 3 3 3 3 3 3 3 3 3 3 3 3 3 3 3 3 3 3 3 3 3 3 3 3 3 3
POINT_DATA 512
VECTORS electric_field double
-12.4758 0 0
-12.4267 0 0
-12.4267 0 0
-12.3776 0 0
-12.3776 0 0
-12.3285 0 0
-12.3285 0 0
-12.2794 0 0
-12.2794 0 0
-12.2303 0 0
-12.2303 0 0
-12.1812 0 0
-12.1812 0 0
-12.1322 0 0
-12.1322 0 0
-12.0831 0 0
-12.0831 0 0
-12.034 0 0
-12.034 0 0
-11.9849 0 0
-11.9849 0 0
-11.9358 0 0
-11.9358 0 0
-11.8867 0 0
-11.8867 0 0
-11.8376 0 0
-11.8376 0 0
-11.7885 0 0
-11.7885 0 0
-11.7395 0 0
-11.7395 0 0
-11.6904 0 0
-11.6904 0 0
-11.6413 0 0
-11.6413 0 0
-11.5922 0 0
-11.5922 0 0
-11.5431 0 0
-11.5431 0 0
-11.494 0 0
-11.494 0 0
-11.4449 0 0
-11.4449 0 0
-11.3958 0 0
-11.3958 0 0
-11.3468 0 0
-11.3468 0 0
-11.2977 0 0
-11.2977 0 0
-11.2486 0 0
-11.2486 0 0
-11.1995 0 0
-11.1995 0 0
-11.1504 0 0
-11.1504 0 0
-11.1013 0 0
-11.1013 0 0
-11.0522 0 0
-11.0522 0 0
-11.0031 0 0
-11.0031 0 0
-10.9541 0 0
-10.9541 0 0
-10.905 0 0
-10.905 0 0
-10.8559 0 0
-10.8559 0 0
-10.8068 0 0
-10.8068 0 0
-10.7577 0 0
-10.7577 0 0
-10.7086 0 0
-10.7086 0 0
-10.6595 0 0
-10.6595 0 0
-10.6104 0 0
-10.6104 0 0
-10.5614 0 0
-10.5614 0 0
-10.5123 0 0
-10.5123 0 0
-10.4632 0 0
-10.4632 0 0
-10.4141 0 0
-10.4141 0 0
-10.365 0 0
-10.365 0 0
-10.3159 0 0
-10.3159 0 0
-10.2668 0 0
-10.2668 0 0
-10.2177 0 0
-10.2177 0 0
-10.1687 0 0
-10.1687 0 0
-10.1196 0 0
-10.1196 0 0
-10.0705 0 0
-10.0705 0 0
-10.0214 0 0
-10.0214 0 0
-9.97231 0 0
-9.97231 0 0
-9.92322 0 0
-9.92322 0 0
-9.87413 0 0
-9.87413 0 0
-9.82504 0 0
-9.82504 0 0
-9.77596 0 0
-9.77596 0 0
-9.72687 0 0
-9.72687 0 0
-9.67778 0 0
-9.67778 0 0
-9.62869 0 0
-9.62869 0 0
-9.57961 0 0
-9.57961 0 0
-9.53052 0 0
-9.53052 0 0
-9.48143 0 0
-9.48143 0 0
-9.43235 0 0
-9.43235 0 0
-9.38326 0 0
-9.38326 0 0
-9.33417 0 0
-9.33417 0 0
-9.28508 0 0
-9.28508 0 0
-9.236 0 0
-9.236 0 0
-9.18691 0 0
-9.18691 0 0
-9.13782 0 0
-9.13782 0 0
-9.08873 0 0
-9.08873 0 0
-9.03965 0 0
-9.03965 0 0
-8.99056 0 0
-8.99056 0 0
-8.94147 0 0
-8.94147 0 0
-8.89238 0 0
-8.89238 0 0
-8.8433 0 0
-8.8433 0 0
-8.79421 0 0
-8.79421 0 0
-8.74512 0 0
-8.74512 0 0
-8.69603 0 0
-8.69603 0 0
-8.64695 0 0
-8.64695 0 0
-8.59786 0 0
-8.59786 0 0
-8.54877 0 0
-8.54877 0 0
-8.49969 0 0
-8.49969 0 0
-8.4506 0 0
-8.4506 0 0
-8.40151 0 0
-8.40151 0 0
-8.35242 0 0
-8.35242 0 0
-8.30334 0 0
-8.30334 0 0
-8.25425 0 0
-8.25425 0 0
-8.20516 0 0
-8.20516 0 0
-8.15607 0 0
-8.15607 0 0
-8.10699 0 0
-8.10699 0 0
-8.0579 0 0
-8.0579 0 0
-8.00881 0 0
-8.00881 0 0
-7.95972 0 0
-7.95972 0 0
-7.91064 0 0
-7.91064 0 0
-7.86155 0 0
-7.86155 0 0
-7.81246 0 0
-7.81246 0 0
-7.76337 0 0
-7.76337 0 0
-7.71429 0 0
-7.71429 0 0
-7.6652 0 0
-7.6652 0 0
-7.61611 0 0
-7.61611 0 0
-7.56702 0 0
-7.56702 0 0
-7.51794 0 0
-7.51794 0 0
-7.46885 0 0
-7.46885 0 0
-7.41976 0 0
-7.41976 0 0
-7.37068 0 0
-7.37068 0 0
-7.32159 0 0
-7.32159 0 0
-7.2725 0 0
-7.2725 0 0
-7.22341 0 0
-7.22341 0 0
-7.17433 0 0
-7.17433 0 0
-7.12524 0 0
-7.12524 0 0
-7.07615 0 0
-7.07615 0 0
-7.02706 0 0
-7.02706 0 0
-6.97798 0 0
-6.97798 0 0
-6.92889 0 0
-6.92889 0 0
-6.8798 0 0
-6.8798 0 0
-6.83071 0 0
-6.83071 0 0
-6.78163 0 0
-6.78163 0 0
-6.73254 0 0
-6.73254 0 0
-6.68345 0 0
-6.68345 0 0
-6.63436 0 0
-6.63436 0 0
-6.58528 0 0
-6.58528 0 0
-6.53619 0 0
-6.53619 0 0
-6.4871 0 0
-6.4871 0 0
-6.43801 0 0
-6.43801 0 0
-6.38893 0 0
-6.38893 0 0
-6.33984 0 0
-6.33984 0 0
-6.29075 0 0
-6.29075 0 0
-6.24167 0 0
-6.24167 0 0
-6.19258 0 0
-6.19258 0 0
-6.14349 0 0
-6.14349 0 0
-6.0944 0 0
-6.0944 0 0
-6.04532 0 0
-6.04532 0 0
-5.99623 0 0
-5.99623 0 0
-5.94714 0 0
-5.94714 0 0
-5.89805 0 0
-5.89805 0 0
-5.84897 0 0
-5.84897 0 0
-5.79988 0 0
-5.79988 0 0
-5.75079 0 0
-5.75079 0 0
-5.7017 0 0
-5.7017 0 0
-5.65262 0 0
-5.65262 0 0
-5.60353 0 0
-5.60353 0 0
-5.55444 0 0
-5.55444 0 0
-5.50535 0 0
-5.50535 0 0
-5.45627 0 0
-5.45627 0 0
-5.40718 0 0
-5.40718 0 0
-5.35809 0 0
-5.35809 0 0
-5.309 0 0
-5.309 0 0
-5.25992 0 0
-5.25992 0 0
-5.21083 0 0
-5.21083 0 0
-5.16174 0 0
-5.16174 0 0
-5.11266 0 0
-5.11266 0 0
-5.06357 0 0
-5.06357 0 0
-5.01448 0 0
-5.01448 0 0
-4.96539 0 0
-4.96539 0 0
-4.91631 0 0
-4.91631 0 0
-4.86722 0 0
-4.86722 0 0
-4.81813 0 0
-4.81813 0 0
-4.76904 0 0
-4.76904 0 0
-4.71996 0 0
-4.71996 0 0
-4.67087 0 0
-4.67087 0 0
-4.62178 0 0
-4.62178 0 0
-4.57269 0 0
-4.57269 0 0
-4.52361 0 0
-4.52361 0 0
-4.47452 0 0
-4.47452 0 0
-4.42543 0 0
-4.42543 0 0
-4.37634 0 0
-4.37634 0 0
-4.32726 0 0
-4.32726 0 0
-4.27817 0 0
-4.27817 0 0
-4.22908 0 0
-4.22908 0 0
-4.18 0 0
-4.18 0 0
-4.13091 0 0
-4.13091 0 0
-4.08182 0 0
-4.08182 0 0
-4.03273 0 0
-4.03273 0 0
-3.98365 0 0
-3.98365 0 0
-3.93456 0 0
-3.93456 0 0
-3.88547 0 0
-3.88547 0 0
-3.83638 0 0
-3.83638 0 0
-3.7873 0 0
-3.7873 0 0
-3.73821 0 0
-3.73821 0 0
-3.68912 0 0
-3.68912 0 0
-3.64003 0 0
-3.64003 0 0
-3.59095 0 0
-3.59095 0 0
-3.54186 0 0
-3.54186 0 0
-3.49277 0 0
-3.49277 0 0
-3.44368 0 0
-3.44368 0 0
-3.3946 0 0
-3.3946 0 0
-3.34551 0 0
-3.34551 0 0
-3.29642 0 0
-3.29642 0 0
-3.24733 0 0
-3.24733 0 0
-3.19825 0 0
-3.19825 0 0
-3.14916 0 0
-3.14916 0 0
-3.10007 0 0
-3.10007 0 0
-3.05099 0 0
-3.05099 0 0
-3.0019 0 0
-3.0019 0 0
-2.95281 0 0
-2.95281 0 0
-2.90372 0 0
-2.90372 0 0
-2.85464 0 0
-2.85464 0 0
-2.80555 0 0
-2.80555 0 0
-2.75646 0 0
-2.75646 0 0
-2.70737 0 0
-2.70737 0 0
-2.65829 0 0
-2.65829 0 0
-2.6092 0 0
-2.6092 0 0
-2.56011 0 0
-2.56012 0 0
-2.51105 0 0
-2.51105 0 0
-2.46196 0 0
-2.46196 0 0
-2.41287 0 0
-2.41287 0 0
-2.36379 0 0
-2.36379 0 0
-2.3147 0 0
-2.3147 0 0
-2.26561 0 0
-2.26561 0 0
-2.21652 0 0
-2.21652 0 0
-2.16744 0 0
-2.16744 0 0
-2.11835 0 0
-2.11835 0 0
-2.06926 0 0
-2.06926 0 0
-2.02017 0 0
-2.02017 0 0
-1.97109 0 0
-1.97109 0 0
-1.922 0 0
-1.922 0 0
-1.87291 0 0
-1.87291 0 0
-1.82382 0 0
-1.82382 0 0
-1.77474 0 0
-1.77474 0 0
-1.72565 0 0
-1.72565 0 0
-1.67656 0 0
-1.67656 0 0
-1.62748 0 0
-1.6275 0 0
-1.5785 0 0
-1.57852 0 0
-1.52946 0 0
-1.52946 0 0
-1.48046 0 0
-1.48047 0 0
-1.43138 0 0
-1.43138 0 0
-1.3823 0 0
-1.3823 0 0
-1.33321 0 0
-1.33321 0 0
-1.28412 0 0
-1.28412 0 0
-1.23503 0 0
-1.23503 0 0
-1.18595 0 0
-1.18595 0 0
-1.13686 0 0
-1.13686 0 0
-1.08777 0 0
-1.08777 0 0
-1.03869 0 0
-1.03868 0 0
-0.989621 0 0
-0.989627 0 0
-0.940572 0 0
-0.940571 0 0
-0.891524 0 0
-0.891472 0 0
-0.842627 0 0
-0.842627 0 0
-0.793689 0 0
-0.793692 0 0
-0.744858 0 0
-0.744884 0 0
-0.696336 0 0
-0.696393 0 0
-0.648129 0 0
-0.648146 0 0
-0.60033 0 0
-0.60033 0 0
-0.553273 0 0
-0.553213 0 0
-0.506608 0 0
-0.50666 0 0
-0.460607 0 0
-0.460685 0 0
-0.415987 0 0
-0.415984 0 0
-0.371937 0 0
-0.37198 0 0
-0.329091 0 0
-0.329106 0 0
-0.287707 0 0
-0.287656 0 0
-0.247263 0 0
-0.247292 0 0
-0.207845 0 0
-0.20781 0 0
-0.170043 0 0
-0.170131 0 0
-0.13335 0 0
-0.133339 0 0
-0.0982444 0 0
-0.0981748 0 0
-0.0490874 0 0
-0.0490874 0 0
-1.09139e-11 0 0
SCALARS potential double 1
LOOKUP_TABLE default
0 0.611198 0.611198 1.21999 1.21999 1.82636 1.82636 2.43033 2.43033 3.03189 3.03189 3.63104 3.63104 4.22778 4.22778 4.82211 4.82211 5.41404 5.41404 6.00355 6.00355 6.59065 6.59065 7.17534 7.17534 7.75763 7.75763 8.3375 8.3375 8.91496 8.91496 9.49002 9.49002 10.0627 10.0627 10.6329 10.6329 11.2007 11.2007 11.7661 11.7661 12.3291 12.3291 12.8897 12.8897 13.4479 13.4479 14.0037 14.0037 14.5571 14.5571 15.108 15.108 15.6566 15.6566 16.2027 16.2027 16.7465 16.7465 17.2878 17.2878 17.8267 17.8267 18.3632 18.3632 18.8973 18.8973 19.429 19.429 19.9582 19.9582 20.4851 20.4851 21.0095 21.0095 21.5316 21.5316 22.0512 22.0512 22.5684 22.5684 23.0833 23.0833 23.5957 23.5957 24.1057 24.1057 24.6132 24.6132 25.1184 25.1184 25.6212 25.6212 26.1215 26.1215 26.6195 26.6195 27.115 27.115 27.6082 27.6082 28.0989 28.0989 28.5872 28.5872 29.0731 29.0731 29.5566 29.5566 30.0377 30.0377 30.5163 30.5163 30.9926 30.9926 31.4665 31.4665 31.9379 31.9379 32.4069 32.4069 32.8736 32.8736 33.3378 33.3378 33.7996 33.7996 34.259 34.259 34.716 34.716 35.1705 35.1705 35.6227 35.6227 36.0724 36.0724 36.5198 36.5198 36.9647 36.9647 37.4073 37.4073 37.8474 37.8474 38.2851 38.2851 38.7204 38.7204 39.1533 39.1533 39.5838 39.5838 40.0118 40.0118 40.4375 40.4375 40.8607 40.8607 41.2816 41.2816 41.7 41.7 42.116 42.116 42.5296 42.5296 42.9408 42.9408 43.3496 43.3496 43.756 43.756 44.16 44.16 44.5616 44.5616 44.9607 44.9607 45.3575 45.3575 45.7518 45.7518 46.1437 46.1437 46.5332 46.5332 46.9204 46.9204 47.3051 47.3051 47.6873 47.6873 48.0672 48.0672 48.4447 48.4447 48.8198 48.8198 49.1924 49.1924 49.5626 49.5626 49.9305 49.9305 50.2959 50.2959 50.6589 50.6589 51.0195 51.0195 51.3777 51.3777 51.7335 51.7335 52.0869 52.0869 52.4378 52.4378 52.7864 52.7864 53.1325 53.1325 53.4763 53.4763 53.8176 53.8176 54.1565 54.1565 54.493 54.493 54.8271 54.8271 55.1588 55.1588 55.4881 55.4881 55.8149 55.8149 56.1394 56.1394 56.4614 56.4614 56.7811 56.7811 57.0983 57.0983 57.4131 57.4131 57.7255 57.7255 58.0355 58.0355 58.3431 58.3431 58.6483 58.6483 58.9511 58.9511 59.2515 59.2515 59.5494 59.5494 59.845 59.845 60.1381 60.1381 60.4288 60.4288 60.7171 60.7171 61.003 61.003 61.2865 61.2865 61.5676 61.5676 61.8463 61.8463 62.1226 62.1226 62.3964 62.3964 62.6679 62.6679 62.9369 62.9369 63.2035 63.2035 63.4678 63.4678 63.7296 63.7296 63.989 63.989 64.246 64.246 64.5005 64.5005 64.7527 64.7527 65.0025 65.0025 65.2498 65.2498 65.4948 65.4948 65.7373 65.7373 65.9774 65.9774 66.2151 66.2151 66.4504 66.4504 66.6833 66.6833 66.9138 66.9138 67.1419 67.1419 67.3676 67.3676 67.5908 67.5908 67.8117 67.8117 68.0301 68.0301 68.2461 68.2461 68.4598 68.4598 68.671 68.671 68.8798 68.8798 69.0862 69.0862 69.2901 69.2901 69.4917 69.4917 69.6909 69.6909 69.8876 69.8876 70.082 70.082 70.2739 70.2739 70.4634 70.4634 70.6505 70.6505 70.8352 70.8352 71.0175 71.0175 71.1974 71.1974 71.3749 71.3749 71.5499 71.5499 71.7226 71.7226 71.8929 71.8929 72.0607 72.0607 72.2261 72.2261 72.3891 72.3891 72.5497 72.5497 72.7079 72.7079 72.8637 72.8637 73.0171 73.0171 73.1681 73.1681 73.3166 73.3166 73.4628 73.4628 73.6065 73.6065 73.7479 73.7479 73.8868 73.8868 74.0233 74.0233 74.1574 74.1574 74.2891 74.2891 74.4184 74.4184 74.5452 74.5452 74.6697 74.6697 74.7918 74.7918 74.9114 74.9114 75.0287 75.0287 75.1435 75.1435 75.2559 75.2559 75.3659 75.3659 75.4735 75.4735 75.5787 75.5787 75.6815 75.6815 75.7818 75.7818 75.8798 75.8798 75.9754 75.9754 76.0685 76.0685 76.1592 76.1592 76.2476 76.2476 76.3335 76.3335 76.417 76.417 76.4981 76.4981 76.5767 76.5767 76.653 76.653 76.7269 76.7269 76.7984 76.7984 76.8674 76.8674 76.9341 76.9341 76.9983 76.9983 77.0601 77.0601 77.1196 77.1196 77.1766 77.1766 77.2312 77.2312 77.2834 77.2834 77.3331 77.3331 77.3805 77.3805 77.4255 77.4255 77.468 77.468 77.5082 77.5082 77.546 77.546 77.5813 77.5813 77.6143 77.6143 77.645 77.645 77.6733 77.6733 77.6993 77.6993 77.723 77.723 77.7446 77.7446 77.7639 77.7639 77.7811 77.7811 77.7962 77.7962 77.8093 77.8093 77.8205 77.8205 77.8298 77.8298 77.8372 77.8372 77.8429 77.8429 77.8465 77.8465 77.8477 
SCALARS x_coordinate double 1
LOOKUP_TABLE default
0 0.0490874 0.0490874 0.0981748 0.0981748 0.147262 0.147262 0.19635 0.19635 0.245437 0.245437 0.294524 0.294524 0.343612 0.343612 0.392699 0.392699 0.441786 0.441786 0.490874 0.490874 0.539961 0.539961 0.589049 0.589049 0.638136 0.638136 0.687223 0.687223 0.736311 0.736311 0.785398 0.785398 0.834486 0.834486 0.883573 0.883573 0.93266 0.93266 0.981748 0.981748 1.03084 1.03084 1.07992 1.07992 1.12901 1.12901 1.1781 1.1781 1.22718 1.22718 1.27627 1.27627 1.32536 1.32536 1.37445 1.37445 1.42353 1.42353 1.47262 1.47262 1.52171 1.52171 1.5708 1.5708 1.61988 1.61988 1.66897 1.66897 1.71806 1.71806 1.76715 1.76715 1.81623 1.81623 1.86532 1.86532 1.91441 1.91441 1.9635 1.9635 2.01258 2.01258 2.06167 2.06167 2.11076 2.11076 2.15984 2.15984 2.20893 2.20893 2.25802 2.25802 2.30711 2.30711 2.35619 2.35619 2.40528 2.40528 2.45437 2.45437 2.50346 2.50346 2.55254 2.55254 2.60163 2.60163 2.65072 2.65072 2.69981 2.69981 2.74889 2.74889 2.79798 2.79798 2.84707 2.84707 2.89616 2.89616 2.94524 2.94524 2.99433 2.99433 3.04342 3.04342 3.09251 3.09251 3.14159 3.14159 3.19068 3.19068 3.23977 3.23977 3.28885 3.28885 3.33794 3.33794 3.38703 3.38703 3.43612 3.43612 3.4852 3.4852 3.53429 3.53429 3.58338 3.58338 3.63247 3.63247 3.68155 3.68155 3.73064 3.73064 3.77973 3.77973 3.82882 3.82882 3.8779 3.8779 3.92699 3.92699 3.97608 3.97608 4.02517 4.02517 4.07425 4.07425 4.12334 4.12334 4.17243 4.17243 4.22152 4.22152 4.2706 4.2706 4.31969 4.31969 4.36878 4.36878 4.41786 4.41786 4.46695 4.46695 4.51604 4.51604 4.56513 4.56513 4.61421 4.61421 4.6633 4.6633 4.71239 4.71239 4.76148 4.76148 4.81056 4.81056 4.85965 4.85965 4.90874 4.90874 4.95783 4.95783 5.00691 5.00691 5.056 5.056 5.10509 5.10509 5.15418 5.15418 5.20326 5.20326 5.25235 5.25235 5.30144 5.30144 5.35052 5.35052 5.39961 5.39961 5.4487 5.4487 5.49779 5.49779 5.54687 5.54687 5.59596 5.59596 5.64505 5.64505 5.69414 5.69414 5.74322 5.74322 5.79231 5.79231 5.8414 5.8414 5.89049 5.89049 5.93957 5.93957 5.98866 5.98866 6.03775 6.03775 6.08684 6.08684 6.13592 6.13592 6.18501 6.18501 6.2341 6.2341 6.28319 6.28319 6.33227 6.33227 6.38136 6.38136 6.43045 6.43045 6.47953 6.47953 6.52862 6.52862 6.57771 6.57771 6.6268 6.6268 6.67588 6.67588 6.72497 6.72497 6.77406 6.77406 6.82315 6.82315 6.87223 6.87223 6.92132 6.92132 6.97041 6.97041 7.0195 7.0195 7.06858 7.06858 7.11767 7.11767 7.16676 7.16676 7.21585 7.21585 7.26493 7.26493 7.31402 7.31402 7.36311 7.36311 7.4122 7.4122 7.46128 7.46128 7.51037 7.51037 7.55946 7.55946 7.60854 7.60854 7.65763 7.65763 7.70672 7.70672 7.75581 7.75581 7.80489 7.80489 7.85398 7.85398 7.90307 7.90307 7.95216 7.95216 8.00124 8.00124 8.05033 8.05033 8.09942 8.09942 8.14851 8.14851 8.19759 8.19759 8.24668 8.24668 8.29577 8.29577 8.34486 8.34486 8.39394 8.39394 8.44303 8.44303 8.49212 8.49212 8.54121 8.54121 8.59029 8.59029 8.63938 8.63938 8.68847 8.68847 8.73755 8.73755 8.78664 8.78664 8.83573 8.83573 8.88482 8.88482 8.9339 8.9339 8.98299 8.98299 9.03208 9.03208 9.08117 9.08117 9.13025 9.13025 9.17934 9.17934 9.22843 9.22843 9.27752 9.27752 9.3266 9.3266 9.37569 9.37569 9.42478 9.42478 9.47387 9.47387 9.52295 9.52295 9.57204 9.57204 9.62113 9.62113 9.67021 9.67021 9.7193 9.7193 9.76839 9.76839 9.81748 9.81748 9.86656 9.86656 9.91565 9.91565 9.96474 9.96474 10.0138 10.0138 10.0629 10.0629 10.112 10.112 10.1611 10.1611 10.2102 10.2102 10.2593 10.2593 10.3084 10.3084 10.3574 10.3574 10.4065 10.4065 10.4556 10.4556 10.5047 10.5047 10.5538 10.5538 10.6029 10.6029 10.652 10.652 10.701 10.701 10.7501 10.7501 10.7992 10.7992 10.8483 10.8483 10.8974 10.8974 10.9465 10.9465 10.9956 10.9956 11.0447 11.0447 11.0937 11.0937 11.1428 11.1428 11.1919 11.1919 11.241 11.241 11.2901 11.2901 11.3392 11.3392 11.3883 11.3883 11.4374 11.4374 11.4864 11.4864 11.5355 11.5355 11.5846 11.5846 11.6337 11.6337 11.6828 11.6828 11.7319 11.7319 11.781 11.781 11.8301 11.8301 11.8791 11.8791 11.9282 11.9282 11.9773 11.9773 12.0264 12.0264 12.0755 12.0755 12.1246 12.1246 12.1737 12.1737 12.2228 12.2228 12.2718 12.2718 12.3209 12.3209 12.37 12.37 12.4191 12.4191 12.4682 12.4682 12.5173 12.5173 12.5664 
