# vtk DataFile Version 3.0
#This file was generated by the deal.II library on 2026/3/10 at 19:08:40
ASCII
DATASET UNSTRUCTURED_GRID

POINTS 512 double
0 0 0
0.0490874 0 0
0.0490874 0 0
0.0981748 0 0
0.0981748 0 0
0.147262 0 0
0.147262 0 0
0.19635 0 0
0.19635 0 0
0.245437 0 0
0.245437 0 0
0.294524 0 0
0.294524 0 0
0.343612 0 0
0.343612 0 0
0.392699 0 0
0.392699 0 0
0.441786 0 0
0.441786 0 0
0.490874 0 0
0.490874 0 0
0.539961 0 0
0.539961 0 0
0.589049 0 0
0.589049 0 0
0.638136 0 0
0.638136 0 0
0.687223 0 0
0.687223 0 0
0.736311 0 0
0.736311 0 0
0.785398 0 0
0.785398 0 0
0.834486 0 0
0.834486 0 0
0.883573 0 0
0.883573 0 0
0.93266 0 0
0.93266 0 0
0.981748 0 0
0.981748 0 0
1.03084 0 0
1.03084 0 0
1.07992 0 0
1.07992 0 0
1.12901 0 0
1.12901 0 0
1.1781 0 0
1.1781 0 0
1.22718 0 0
1.22718 0 0
1.27627 0 0
1.27627 0 0
1.32536 0 0
1.32536 0 0
1.37445 0 0
1.37445 0 0
1.42353 0 0
1.42353 0 0
1.47262 0 0
1.47262 0 0
1.52171 0 0
1.52171 0 0
1.5708 0 0
1.5708 0 0
1.61988 0 0
1.61988 0 0
1.66897 0 0
1.66897 0 0
1.71806 0 0
1.71806 0 0
1.76715 0 0
1.76715 0 0
1.81623 0 0
1.81623 0 0
1.86532 0 0
1.86532 0 0
1.91441 0 0
1.91441 0 0
1.9635 0 0
1.9635 0 0
2.01258 0 0
2.01258 0 0
2.06167 0 0
2.06167 0 0
2.11076 0 0
2.11076 0 0
2.15984 0 0
2.15984 0 0
2.20893 0 0
2.20893 0 0
2.25802 0 0
2.25802 0 0
2.30711 0 0
2.30711 0 0
2.35619 0 0
2.35619 0 0
2.40528 0 0
2.40528 0 0
2.45437 0 0
2.45437 0 0
2.50346 0 0
2.50346 0 0
2.55254 0 0
2.55254 0 0
2.60163 0 0
2.60163 0 0
2.65072 0 0
2.65072 0 0
2.69981 0 0
2.69981 0 0
2.74889 0 0
2.74889 0 0
2.79798 0 0
2.79798 0 0
2.84707 0 0
2.84707 0 0
2.89616 0 0
2.89616 0 0
2.94524 0 0
2.94524 0 0
2.99433 0 0
2.99433 0 0
3.04342 0 0
3.04342 0 0
3.09251 0 0
3.09251 0 0
3.14159 0 0
3.14159 0 0
3.19068 0 0
3.19068 0 0
3.23977 0 0
3.23977 0 0
3.28885 0 0
3.28885 0 0
3.33794 0 0
3.33794 0 0
3.38703 0 0
3.38703 0 0
3.43612 0 0
3.43612 0 0
3.4852 0 0
3.4852 0 0
3.53429 0 0
3.53429 0 0
3.58338 0 0
3.58338 0 0
3.63247 0 0
3.63247 0 0
3.68155 0 0
3.68155 0 0
3.73064 0 0
3.73064 0 0
3.77973 0 0
3.77973 0 0
3.82882 0 0
3.82882 0 0
3.8779 0 0
3.8779 0 0
3.92699 0 0
3.92699 0 0
3.97608 0 0
3.97608 0 0
4.02517 0 0
4.02517 0 0
4.07425 0 0
4.07425 0 0
4.12334 0 0
4.12334 0 0
4.17243 0 0
4.17243 0 0
4.22152 0 0
4.22152 0 0
4.2706 0 0
4.2706 0 0
4.31969 0 0
4.31969 0 0
4.36878 0 0
4.36878 0 0
4.41786 0 0
4.41786 0 0
4.46695 0 0
4.46695 0 0
4.51604 0 0
4.51604 0 0
4.56513 0 0
4.56513 0 0
4.61421 0 0
4.61421 0 0
4.6633 0 0
4.6633 0 0
4.71239 0 0
4.71239 0 0
4.76148 0 0
4.76148 0 0
4.81056 0 0
4.81056 0 0
4.85965 0 0
4.85965 0 0
4.90874 0 0
4.90874 0 0
4.95783 0 0
4.95783 0 0
5.00691 0 0
5.00691 0 0
5.056 0 0
5.056 0 0
5.10509 0 0
5.10509 0 0
5.15418 0 0
5.15418 0 0
5.20326 0 0
5.20326 0 0
5.25235 0 0
5.25235 0 0
5.30144 0 0
5.30144 0 0
5.35052 0 0
5.35052 0 0
5.39961 0 0
5.39961 0 0
5.4487 0 0
5.4487 0 0
5.49779 0 0
5.49779 0 0
5.54687 0 0
5.54687 0 0
5.59596 0 0
5.59596 0 0
5.64505 0 0
5.64505 0 0
5.69414 0 0
5.69414 0 0
5.74322 0 0
5.74322 0 0
5.79231 0 0
5.79231 0 0
5.8414 0 0
5.8414 0 0
5.89049 0 0
5.89049 0 0
5.93957 0 0
5.93957 0 0
5.98866 0 0
5.98866 0 0
6.03775 0 0
6.03775 0 0
6.08684 0 0
6.08684 0 0
6.13592 0 0
6.13592 0 0
6.18501 0 0
6.18501 0 0
6.2341 0 0
6.2341 0 0
6.28319 0 0
6.28319 0 0
6.33227 0 0
6.33227 0 0
6.38136 0 0
6.38136 0 0
6.43045 0 0
6.43045 0 0
6.47953 0 0
6.47953 0 0
6.52862 0 0
6.52862 0 0
6.57771 0 0
6.57771 0 0
6.6268 0 0
6.6268 0 0
6.67588 0 0
6.67588 0 0
6.72497 0 0
6.72497 0 0
6.77406 0 0
6.77406 0 0
6.82315 0 0
6.82315 0 0
6.87223 0 0
6.87223 0 0
6.92132 0 0
6.92132 0 0
6.97041 0 0
6.97041 0 0
7.0195 0 0
7.0195 0 0
7.06858 0 0
7.06858 0 0
7.11767 0 0
7.11767 0 0
7.16676 0 0
7.16676 0 0
7.21585 0 0
7.21585 0 0
7.26493 0 0
7.26493 0 0
7.31402 0 0
7.31402 0 0
7.36311 0 0
7.36311 0 0
7.4122 0 0
7.4122 0 0
7.46128 0 0
7.46128 0 0
7.51037 0 0
7.51037 0 0
7.55946 0 0
7.55946 0 0
7.60854 0 0
7.60854 0 0
7.65763 0 0
7.65763 0 0
7.70672 0 0
7.70672 0 0
7.75581 0 0
7.75581 0 0
7.80489 0 0
7.80489 0 0
7.85398 0 0
7.85398 0 0
7.90307 0 0
7.90307 0 0
7.95216 0 0
7.95216 0 0
8.00124 0 0
8.00124 0 0
8.05033 0 0
8.05033 0 0
8.09942 0 0
8.09942 0 0
8.14851 0 0
8.14851 0 0
8.19759 0 0
8.19759 0 0
8.24668 0 0
8.24668 0 0
8.29577 0 0
8.29577 0 0
8.34486 0 0
8.34486 0 0
8.39394 0 0
8.39394 0 0
8.44303 0 0
8.44303 0 0
8.49212 0 0
8.49212 0 0
8.54121 0 0
8.54121 0 0
8.59029 0 0
8.59029 0 0
8.63938 0 0
8.63938 0 0
8.68847 0 0
8.68847 0 0
8.73755 0 0
8.73755 0 0
8.78664 0 0
8.78664 0 0
8.83573 0 0
8.83573 0 0
8.88482 0 0
8.88482 0 0
8.9339 0 0
8.9339 0 0
8.98299 0 0
8.98299 0 0
9.03208 0 0
9.03208 0 0
9.08117 0 0
9.08117 0 0
9.13025 0 0
9.13025 0 0
9.17934 0 0
9.17934 0 0
9.22843 0 0
9.22843 0 0
9.27752 0 0
9.27752 0 0
9.3266 0 0
9.3266 0 0
9.37569 0 0
9.37569 0 0
9.42478 0 0
9.42478 0 0
9.47387 0 0
9.47387 0 0
9.52295 0 0
9.52295 0 0
9.57204 0 0
9.57204 0 0
9.62113 0 0
9.62113 0 0
9.67021 0 0
9.67021 0 0
9.7193 0 0
9.7193 0 0
9.76839 0 0
9.76839 0 0
9.81748 0 0
9.81748 0 0
9.86656 0 0
9.86656 0 0
9.91565 0 0
9.91565 0 0
9.96474 0 0
9.96474 0 0
10.0138 0 0
10.0138 0 0
10.0629 0 0
10.0629 0 0
10.112 0 0
10.112 0 0
10.1611 0 0
10.1611 0 0
10.2102 0 0
10.2102 0 0
10.2593 0 0
10.2593 0 0
10.3084 0 0
10.3084 0 0
10.3574 0 0
10.3574 0 0
10.4065 0 0
10.4065 0 0
10.4556 0 0
10.4556 0 0
10.5047 0 0
10.5047 0 0
10.5538 0 0
10.5538 0 0
10.6029 0 0
10.6029 0 0
10.652 0 0
10.652 0 0
10.701 0 0
10.701 0 0
10.7501 0 0
10.7501 0 0
10.7992 0 0
10.7992 0 0
10.8483 0 0
10.8483 0 0
10.8974 0 0
10.8974 0 0
10.9465 0 0
10.9465 0 0
10.9956 0 0
10.9956 0 0
11.0447 0 0
11.0447 0 0
11.0937 0 0
11.0937 0 0
11.1428 0 0
11.1428 0 0
11.1919 0 0
11.1919 0 0
11.241 0 0
11.241 0 0
11.2901 0 0
11.2901 0 0
11.3392 0 0
11.3392 0 0
11.3883 0 0
11.3883 0 0
11.4374 0 0
11.4374 0 0
11.4864 0 0
11.4864 0 0
11.5355 0 0
11.5355 0 0
11.5846 0 0
11.5846 0 0
11.6337 0 0
11.6337 0 0
11.6828 0 0
11.6828 0 0
11.7319 0 0
11.7319 0 0
11.781 0 0
11.781 0 0
11.8301 0 0
11.8301 0 0
11.8791 0 0
11.8791 0 0
11.9282 0 0
11.9282 0 0
11.9773 0 0
11.9773 0 0
12.0264 0 0
12.0264 0 0
12.0755 0 0
12.0755 0 0
12.1246 0 0
12.1246 0 0
12.1737 0 0
12.1737 0 0
12.2228 0 0
12.2228 0 0
12.2718 0 0
12.2718 0 0
12.3209 0 0
12.3209 0 0
12.37 0 0
12.37 0 0
12.4191 0 0
12.4191 0 0
12.4682 0 0
12.4682 0 0
12.5173 0 0
12.5173 0 0
12.5664 0 0

CELLS 256 768
2	0	1
2	2	3
2	4	5
2	6	7
2	8	9
2	10	11
2	12	13
2	14	15
2	16	17
2	18	19
2	20	21
2	22	23
2	24	25
2	26	27
2	28	29
2	30	31
2	32	33
2	34	35
2	36	37
2	38	39
2	40	41
2	42	43
2	44	45
2	46	47
2	48	49
2	50	51
2	52	53
2	54	55
2	56	57
2	58	59
2	60	61
2	62	63
2	64	65
2	66	67
2	68	69
2	70	71
2	72	73
2	74	75
2	76	77
2	78	79
2	80	81
2	82	83
2	84	85
2	86	87
2	88	89
2	90	91
2	92	93
2	94	95
2	96	97
2	98	99
2	100	101
2	102	103
2	104	105
2	106	107
2	108	109
2	110	111
2	112	113
2	114	115
2	116	117
2	118	119
2	120	121
2	122	123
2	124	125
2	126	127
2	128	129
2	130	131
2	132	133
2	134	135
2	136	137
2	138	139
2	140	141
2	142	143
2	144	145
2	146	147
2	148	149
2	150	151
2	152	153
2	154	155
2	156	157
2	158	159
2	160	161
2	162	163
2	164	165
2	166	167
2	168	169
2	170	171
2	172	173
2	174	175
2	176	177
2	178	179
2	180	181
2	182	183
2	184	185
2	186	187
2	188	189
2	190	191
2	192	193
2	194	195
2	196	197
2	198	199
2	200	201
2	202	203
2	204	205
2	206	207
2	208	209
2	210	211
2	212	213
2	214	215
2	216	217
2	218	219
2	220	221
2	222	223
2	224	225
2	226	227
2	228	229
2	230	231
2	232	233
2	234	235
2	236	237
2	238	239
2	240	241
2	242	243
2	244	245
2	246	247
2	248	249
2	250	251
2	252	253
2	254	255
2	256	257
2	258	259
2	260	261
2	262	263
2	264	265
2	266	267
2	268	269
2	270	271
2	272	273
2	274	275
2	276	277
2	278	279
2	280	281
2	282	283
2	284	285
2	286	287
2	288	289
2	290	291
2	292	293
2	294	295
2	296	297
2	298	299
2	300	301
2	302	303
2	304	305
2	306	307
2	308	309
2	310	311
2	312	313
2	314	315
2	316	317
2	318	319
2	320	321
2	322	323
2	324	325
2	326	327
2	328	329
2	330	331
2	332	333
2	334	335
2	336	337
2	338	339
2	340	341
2	342	343
2	344	345
2	346	347
2	348	349
2	350	351
2	352	353
2	354	355
2	356	357
2	358	359
2	360	361
2	362	363
2	364	365
2	366	367
2	368	369
2	370	371
2	372	373
2	374	375
2	376	377
2	378	379
2	380	381
2	382	383
2	384	385
2	386	387
2	388	389
2	390	391
2	392	393
2	394	395
2	396	397
2	398	399
2	400	401
2	402	403
2	404	405
2	406	407
2	408	409
2	410	411
2	412	413
2	414	415
2	416	417
2	418	419
2	420	421
2	422	423
2	424	425
2	426	427
2	428	429
2	430	431
2	432	433
2	434	435
2	436	437
2	438	439
2	440	441
2	442	443
2	444	445
2	446	447
2	448	449
2	450	451
2	452	453
2	454	455
2	456	457
2	458	459
2	460	461
2	462	463
2	464	465
2	466	467
2	468	469
2	470	471
2	472	473
2	474	475
2	476	477
2	478	479
2	480	481
2	482	483
2	484	485
2	486	487
2	488	489
2	490	491
2	492	493
2	494	495
2	496	497
2	498	499
2	500	501
2	502	503
2	504	505
2	506	507
2	508	509
2	510	511

CELL_TYPES 256
 3 3 3 3 3 3 3 3 3 3 3 3 3 3 3 3 3 3 3 3 3 3 3 3 3 3 3 3 3 3 3 3 3 3 3 3 3 3 3 3 3 3 3 3 3 3 3 3 3 3 3 3 3 3 3 3 3 3 3 3 3 3 3 3 3 3 3 3 3 3 3 3 3 3 3 3 3 3 3 3 3 3 3 3 3 3 3 3 3 3 3 3 3 3 3 3 3 3 3 3 3 3 3 3 3 3 3 3 3 3 3 3 3 3 3 3 3 3 3 3 3 3 3 3 3 3 3 3 3 3 3 3 3 3 3 3 3 3 3 3 3 3 3 3 3 3 3 3 3 3 3 3 3 3 3 3 3 3 3 3 3 3 3 3 3 3 3 3 3 3 3 3 3 3 3 3 3 3 3 3 3 3 3 3 3 3 3 3 3 3 3 3 3 3 3 3 3 3 3 3 3 3 3 3 3 3 3 3 3 3 3 3 3 3 3 3 3 3 3 3 3 3 3 3 3 3 3 3 3 3 3 3 3 3 3 3 3 3 3 3 3 3 3 3 3 3 3 3 3 3 3 3 3 3 3 3
POINT_DATA 512
VECTORS electric_field double
-12.5663 0 0
-12.5172 0 0
-12.5172 0 0
-12.4681 0 0
-12.4681 0 0
-12.419 0 0
-12.419 0 0
-12.3699 0 0
-12.3699 0 0
-12.3209 0 0
-12.3209 0 0
-12.2718 0 0
-12.2718 0 0
-12.2227 0 0
-12.2227 0 0
-12.1736 0 0
-12.1736 0 0
-12.1245 0 0
-12.1245 0 0
-12.0754 0 0
-12.0754 0 0
-12.0263 0 0
-12.0263 0 0
-11.9773 0 0
-11.9773 0 0
-11.9282 0 0
-11.9282 0 0
-11.8791 0 0
-11.8791 0 0
-11.83 0 0
-11.83 0 0
-11.7809 0 0
-11.7809 0 0
-11.7318 0 0
-11.7318 0 0
-11.6827 0 0
-11.6827 0 0
-11.6336 0 0
-11.6336 0 0
-11.5846 0 0
-11.5846 0 0
-11.5355 0 0
-11.5355 0 0
-11.4864 0 0
-11.4864 0 0
-11.4373 0 0
-11.4373 0 0
-11.3882 0 0
-11.3882 0 0
-11.3391 0 0
-11.3391 0 0
-11.29 0 0
-11.29 0 0
-11.2409 0 0
-11.2409 0 0
-11.1919 0 0
-11.1919 0 0
-11.1428 0 0
-11.1428 0 0
-11.0937 0 0
-11.0937 0 0
-11.0446 0 0
-11.0446 0 0
-10.9955 0 0
-10.9955 0 0
-10.9464 0 0
-10.9464 0 0
-10.8973 0 0
-10.8973 0 0
-10.8482 0 0
-10.8482 0 0
-10.7992 0 0
-10.7992 0 0
-10.7501 0 0
-10.7501 0 0
-10.701 0 0
-10.701 0 0
-10.6519 0 0
-10.6519 0 0
-10.6028 0 0
-10.6028 0 0
-10.5537 0 0
-10.5537 0 0
-10.5046 0 0
-10.5046 0 0
-10.4555 0 0
-10.4555 0 0
-10.4065 0 0
-10.4065 0 0
-10.3574 0 0
-10.3574 0 0
-10.3083 0 0
-10.3083 0 0
-10.2592 0 0
-10.2592 0 0
-10.2101 0 0
-10.2101 0 0
-10.161 0 0
-10.161 0 0
-10.1119 0 0
-10.1119 0 0
-10.0628 0 0
-10.0628 0 0
-10.0138 0 0
-10.0138 0 0
-9.96467 0 0
-9.96467 0 0
-9.91558 0 0
-9.91558 0 0
-9.86649 0 0
-9.86649 0 0
-9.8174 0 0
-9.8174 0 0
-9.76832 0 0
-9.76832 0 0
-9.71923 0 0
-9.71923 0 0
-9.67014 0 0
-9.67014 0 0
-9.62106 0 0
-9.62106 0 0
-9.57197 0 0
-9.57197 0 0
-9.52288 0 0
-9.52288 0 0
-9.47379 0 0
-9.47379 0 0
-9.42471 0 0
-9.42471 0 0
-9.37562 0 0
-9.37562 0 0
-9.32653 0 0
-9.32653 0 0
-9.27744 0 0
-9.27744 0 0
-9.22836 0 0
-9.22836 0 0
-9.17927 0 0
-9.17927 0 0
-9.13018 0 0
-9.13018 0 0
-9.08109 0 0
-9.08109 0 0
-9.03201 0 0
-9.03201 0 0
-8.98292 0 0
-8.98292 0 0
-8.93383 0 0
-8.93383 0 0
-8.88474 0 0
-8.88474 0 0
-8.83566 0 0
-8.83566 0 0
-8.78657 0 0
-8.78657 0 0
-8.73748 0 0
-8.73748 0 0
-8.6884 0 0
-8.6884 0 0
-8.63931 0 0
-8.63931 0 0
-8.59022 0 0
-8.59022 0 0
-8.54113 0 0
-8.54113 0 0
-8.49205 0 0
-8.49205 0 0
-8.44296 0 0
-8.44296 0 0
-8.39387 0 0
-8.39387 0 0
-8.34478 0 0
-8.34478 0 0
-8.2957 0 0
-8.2957 0 0
-8.24661 0 0
-8.24661 0 0
-8.19752 0 0
-8.19752 0 0
-8.14843 0 0
-8.14843 0 0
-8.09935 0 0
-8.09935 0 0
-8.05026 0 0
-8.05026 0 0
-8.00117 0 0
-8.00117 0 0
-7.95208 0 0
-7.95208 0 0
-7.903 0 0
-7.903 0 0
-7.85391 0 0
-7.85391 0 0
-7.80482 0 0
-7.80482 0 0
-7.75573 0 0
-7.75573 0 0
-7.70665 0 0
-7.70665 0 0
-7.65756 0 0
-7.65756 0 0
-7.60847 0 0
-7.60847 0 0
-7.55939 0 0
-7.55939 0 0
-7.5103 0 0
-7.5103 0 0
-7.46121 0 0
-7.46121 0 0
-7.41212 0 0
-7.41212 0 0
-7.36304 0 0
-7.36304 0 0
-7.31395 0 0
-7.31395 0 0
-7.26486 0 0
-7.26486 0 0
-7.21577 0 0
-7.21577 0 0
-7.16669 0 0
-7.16669 0 0
-7.1176 0 0
-7.1176 0 0
-7.06851 0 0
-7.06851 0 0
-7.01942 0 0
-7.01942 0 0
-6.97034 0 0
-6.97034 0 0
-6.92125 0 0
-6.92125 0 0
-6.87216 0 0
-6.87216 0 0
-6.82307 0 0
-6.82307 0 0
-6.77399 0 0
-6.77399 0 0
-6.7249 0 0
-6.7249 0 0
-6.67581 0 0
-6.67581 0 0
-6.62673 0 0
-6.62673 0 0
-6.57764 0 0
-6.57764 0 0
-6.52855 0 0
-6.52855 0 0
-6.47946 0 0
-6.47946 0 0
-6.43038 0 0
-6.43038 0 0
-6.38129 0 0
-6.38129 0 0
-6.3322 0 0
-6.3322 0 0
-6.28311 0 0
-6.28311 0 0
-6.23403 0 0
-6.23403 0 0
-6.18494 0 0
-6.18494 0 0
-6.13585 0 0
-6.13585 0 0
-6.08676 0 0
-6.08676 0 0
-6.03768 0 0
-6.03768 0 0
-5.98859 0 0
-5.98859 0 0
-5.9395 0 0
-5.9395 0 0
-5.89041 0 0
-5.89041 0 0
-5.84133 0 0
-5.84133 0 0
-5.79224 0 0
-5.79224 0 0
-5.74315 0 0
-5.74315 0 0
-5.69406 0 0
-5.69406 0 0
-5.64498 0 0
-5.64498 0 0
-5.59589 0 0
-5.59589 0 0
-5.5468 0 0
-5.5468 0 0
-5.49772 0 0
-5.49772 0 0
-5.44863 0 0
-5.44863 0 0
-5.39954 0 0
-5.39954 0 0
-5.35045 0 0
-5.35045 0 0
-5.30137 0 0
-5.30137 0 0
-5.25228 0 0
-5.25228 0 0
-5.20319 0 0
-5.20319 0 0
-5.1541 0 0
-5.1541 0 0
-5.10502 0 0
-5.10502 0 0
-5.05593 0 0
-5.05593 0 0
-5.00684 0 0
-5.00684 0 0
-4.95775 0 0
-4.95775 0 0
-4.90867 0 0
-4.90867 0 0
-4.85958 0 0
-4.85958 0 0
-4.81049 0 0
-4.81049 0 0
-4.7614 0 0
-4.7614 0 0
-4.71232 0 0
-4.71232 0 0
-4.66323 0 0
-4.66323 0 0
-4.61414 0 0
-4.61414 0 0
-4.56505 0 0
-4.56505 0 0
-4.51597 0 0
-4.51597 0 0
-4.46688 0 0
-4.46688 0 0
-4.41779 0 0
-4.41779 0 0
-4.36871 0 0
-4.36871 0 0
-4.31962 0 0
-4.31962 0 0
-4.27053 0 0
-4.27053 0 0
-4.22144 0 0
-4.22144 0 0
-4.17236 0 0
-4.17236 0 0
-4.12327 0 0
-4.12327 0 0
-4.07418 0 0
-4.07418 0 0
-4.02509 0 0
-4.02509 0 0
-3.97601 0 0
-3.97601 0 0
-3.92692 0 0
-3.92692 0 0
-3.87783 0 0
-3.87783 0 0
-3.82874 0 0
-3.82874 0 0
-3.77966 0 0
-3.77966 0 0
-3.73057 0 0
-3.73057 0 0
-3.68148 0 0
-3.68148 0 0
-3.63239 0 0
-3.63239 0 0
-3.58331 0 0
-3.58331 0 0
-3.53422 0 0
-3.53422 0 0
-3.48513 0 0
-3.48513 0 0
-3.43605 0 0
-3.43605 0 0
-3.38696 0 0
-3.38696 0 0
-3.33787 0 0
-3.33787 0 0
-3.28878 0 0
-3.28878 0 0
-3.2397 0 0
-3.2397 0 0
-3.19061 0 0
-3.19061 0 0
-3.14152 0 0
-3.14152 0 0
-3.09243 0 0
-3.09243 0 0
-3.04335 0 0
-3.04335 0 0
-2.99426 0 0
-2.99426 0 0
-2.94517 0 0
-2.94517 0 0
-2.89608 0 0
-2.89608 0 0
-2.847 0 0
-2.847 0 0
-2.79791 0 0
-2.79791 0 0
-2.74882 0 0
-2.74882 0 0
-2.69973 0 0
-2.69973 0 0
-2.65065 0 0
-2.65065 0 0
-2.60156 0 0
-2.60156 0 0
-2.55247 0 0
-2.55247 0 0
-2.50338 0 0
-2.50338 0 0
-2.4543 0 0
-2.4543 0 0
-2.40521 0 0
-2.40521 0 0
-2.35612 0 0
-2.35612 0 0
-2.30704 0 0
-2.30704 0 0
-2.25795 0 0
-2.25795 0 0
-2.20886 0 0
-2.20886 0 0
-2.15977 0 0
-2.15977 0 0
-2.11069 0 0
-2.11069 0 0
-2.0616 0 0
-2.0616 0 0
-2.01251 0 0
-2.01251 0 0
-1.96342 0 0
-1.96342 0 0
-1.91435 0 0
-1.91434 0 0
-1.8653 0 0
-1.8653 0 0
-1.81622 0 0
-1.81622 0 0
-1.76713 0 0
-1.76713 0 0
-1.71805 0 0
-1.71804 0 0
-1.66896 0 0
-1.66896 0 0
-1.61987 0 0
-1.61987 0 0
-1.57079 0 0
-1.57079 0 0
-1.5217 0 0
-1.5217 0 0
-1.47262 0 0
-1.47262 0 0
-1.42353 0 0
-1.42353 0 0
-1.37444 0 0
-1.37444 0 0
-1.32535 0 0
-1.32535 0 0
-1.27627 0 0
-1.27627 0 0
-1.22718 0 0
-1.22718 0 0
-1.17809 0 0
-1.17809 0 0
-1.12901 0 0
-1.12901 0 0
-1.07992 0 0
-1.07992 0 0
-1.03083 0 0
-1.03083 0 0
-0.981747 0 0
-0.981747 0 0
-0.93266 0 0
-0.93266 0 0
-0.883573 0 0
-0.883573 0 0
-0.834485 0 0
-0.834485 0 0
-0.785398 0 0
-0.785398 0 0
-0.73631 0 0
-0.73631 0 0
-0.687223 0 0
-0.687223 0 0
-0.638136 0 0
-0.638136 0 0
-0.589048 0 0
-0.589048 0 0
-0.539961 0 0
-0.539961 0 0
-0.490873 0 0
-0.490873 0 0
-0.441786 0 0
-0.441786 0 0
-0.392699 0 0
-0.392699 0 0
-0.343611 0 0
-0.343611 0 0
-0.294524 0 0
-0.294524 0 0
-0.245437 0 0
-0.245437 0 0
-0.196349 0 0
-0.196349 0 0
-0.147262 0 0
-0.147262 0 0
-0.0981748 0 0
-0.0981748 0 0
-0.0490874 0 0
-0.0490874 0 0
3.63798e-12 0 0
SCALARS potential double 1
LOOKUP_TABLE default
0 0.615642 0.615642 1.22887 1.22887 1.8397 1.8397 2.44811 2.44811 3.05411 3.05411 3.65771 3.65771 4.25889 4.25889 4.85767 4.85767 5.45403 5.45403 6.04799 6.04799 6.63953 6.63953 7.22867 7.22867 7.8154 7.8154 8.39972 8.39972 8.98162 8.98162 9.56112 9.56112 10.1382 10.1382 10.7129 10.7129 11.2852 11.2852 11.855 11.855 12.4225 12.4225 12.9875 12.9875 13.5501 13.5501 14.1104 14.1104 14.6682 14.6682 15.2236 15.2236 15.7766 15.7766 16.3272 16.3272 16.8753 16.8753 17.4211 17.4211 17.9645 17.9645 18.5054 18.5054 19.0439 19.0439 19.5801 19.5801 20.1138 20.1138 20.6451 20.6451 21.174 21.174 21.7005 21.7005 22.2245 22.2245 22.7462 22.7462 23.2655 23.2655 23.7823 23.7823 24.2968 24.2968 24.8088 24.8088 25.3184 25.3184 25.8256 25.8256 26.3304 26.3304 26.8328 26.8328 27.3328 27.3328 27.8304 27.8304 28.3255 28.3255 28.8183 28.8183 29.3086 29.3086 29.7966 29.7966 30.2821 30.2821 30.7652 30.7652 31.2459 31.2459 31.7242 31.7242 32.2001 32.2001 32.6736 32.6736 33.1446 33.1446 33.6133 33.6133 34.0796 34.0796 34.5434 34.5434 35.0048 35.0048 35.4638 35.4638 35.9204 35.9204 36.3746 36.3746 36.8264 36.8264 37.2758 37.2758 37.7228 37.7228 38.1674 38.1674 38.6095 38.6095 39.0493 39.0493 39.4866 39.4866 39.9215 39.9215 40.354 40.354 40.7841 40.7841 41.2118 41.2118 41.6371 41.6371 42.06 42.06 42.4805 42.4805 42.8985 42.8985 43.3142 43.3142 43.7274 43.7274 44.1382 44.1382 44.5466 44.5466 44.9527 44.9527 45.3563 45.3563 45.7574 45.7574 46.1562 46.1562 46.5526 46.5526 46.9466 46.9466 47.3381 47.3381 47.7272 47.7272 48.114 48.114 48.4983 48.4983 48.8802 48.8802 49.2597 49.2597 49.6368 49.6368 50.0115 50.0115 50.3838 50.3838 50.7536 50.7536 51.1211 51.1211 51.4861 51.4861 51.8488 51.8488 52.209 52.209 52.5668 52.5668 52.9222 52.9222 53.2752 53.2752 53.6258 53.6258 53.974 53.974 54.3198 54.3198 54.6631 54.6631 55.0041 55.0041 55.3426 55.3426 55.6788 55.6788 56.0125 56.0125 56.3438 56.3438 56.6727 56.6727 56.9992 56.9992 57.3233 57.3233 57.6449 57.6449 57.9642 57.9642 58.2811 58.2811 58.5955 58.5955 58.9075 58.9075 59.2172 59.2172 59.5244 59.5244 59.8292 59.8292 60.1316 60.1316 60.4316 60.4316 60.7292 60.7292 61.0243 61.0243 61.3171 61.3171 61.6074 61.6074 61.8954 61.8954 62.1809 62.1809 62.464 62.464 62.7447 62.7447 63.023 63.023 63.2989 63.2989 63.5724 63.5724 63.8435 63.8435 64.1122 64.1122 64.3784 64.3784 64.6423 64.6423 64.9037 64.9037 65.1627 65.1627 65.4193 65.4193 65.6735 65.6735 65.9253 65.9253 66.1747 66.1747 66.4217 66.4217 66.6663 66.6663 66.9084 66.9084 67.1482 67.1482 67.3855 67.3855 67.6204 67.6204 67.853 67.853 68.0831 68.0831 68.3108 68.3108 68.5361 68.5361 68.7589 68.7589 68.9794 68.9794 69.1975 69.1975 69.4131 69.4131 69.6264 69.6264 69.8372 69.8372 70.0456 70.0456 70.2517 70.2517 70.4553 70.4553 70.6565 70.6565 70.8552 70.8552 71.0516 71.0516 71.2456 71.2456 71.4371 71.4371 71.6263 71.6263 71.813 71.813 71.9974 71.9974 72.1793 72.1793 72.3588 72.3588 72.5359 72.5359 72.7106 72.7106 72.8829 72.8829 73.0527 73.0527 73.2202 73.2202 73.3852 73.3852 73.5479 73.5479 73.7081 73.7081 73.8659 73.8659 74.0214 74.0214 74.1744 74.1744 74.325 74.325 74.4731 74.4731 74.6189 74.6189 74.7623 74.7623 74.9032 74.9032 75.0418 75.0418 75.1779 75.1779 75.3116 75.3116 75.443 75.443 75.5719 75.5719 75.6984 75.6984 75.8225 75.8225 75.9441 75.9441 76.0634 76.0634 76.1803 76.1803 76.2947 76.2947 76.4068 76.4068 76.5164 76.5164 76.6236 76.6236 76.7284 76.7284 76.8308 76.8308 76.9308 76.9308 77.0284 77.0284 77.1236 77.1236 77.2164 77.2164 77.3067 77.3067 77.3947 77.3947 77.4802 77.4802 77.5633 77.5633 77.6441 77.6441 77.7224 77.7224 77.7983 77.7983 77.8718 77.8718 77.9428 77.9428 78.0115 78.0115 78.0778 78.0778 78.1416 78.1416 78.2031 78.2031 78.2621 78.2621 78.3187 78.3187 78.3729 78.3729 78.4248 78.4248 78.4741 78.4741 78.5211 78.5211 78.5657 78.5657 78.6079 78.6079 78.6476 78.6476 78.685 78.685 78.7199 78.7199 78.7524 78.7524 78.7826 78.7826 78.8103 78.8103 78.8356 78.8356 78.8585 78.8585 78.879 78.879 78.897 78.897 78.9127 78.9127 78.9259 78.9259 78.9368 78.9368 78.9452 78.9452 78.9512 78.9512 78.9549 78.9549 78.9561 
SCALARS x_coordinate double 1
LOOKUP_TABLE default
0 0.0490874 0.0490874 0.0981748 0.0981748 0.147262 0.147262 0.19635 0.19635 0.245437 0.245437 0.294524 0.294524 0.343612 0.343612 0.392699 0.392699 0.441786 0.441786 0.490874 0.490874 0.539961 0.539961 0.589049 0.589049 0.638136 0.638136 0.687223 0.687223 0.736311 0.736311 0.785398 0.785398 0.834486 0.834486 0.883573 0.883573 0.93266 0.93266 0.981748 0.981748 1.03084 1.03084 1.07992 1.07992 1.12901 1.12901 1.1781 1.1781 1.22718 1.22718 1.27627 1.27627 1.32536 1.32536 1.37445 1.37445 1.42353 1.42353 1.47262 1.47262 1.52171 1.52171 1.5708 1.5708 1.61988 1.61988 1.66897 1.66897 1.71806 1.71806 1.76715 1.76715 1.81623 1.81623 1.86532 1.86532 1.91441 1.91441 1.9635 1.9635 2.01258 2.01258 2.06167 2.06167 2.11076 2.11076 2.15984 2.15984 2.20893 2.20893 2.25802 2.25802 2.30711 2.30711 2.35619 2.35619 2.40528 2.40528 2.45437 2.45437 2.50346 2.50346 2.55254 2.55254 2.60163 2.60163 2.65072 2.65072 2.69981 2.69981 2.74889 2.74889 2.79798 2.79798 2.84707 2.84707 2.89616 2.89616 2.94524 2.94524 2.99433 2.99433 3.04342 3.04342 3.09251 3.09251 3.14159 3.14159 3.19068 3.19068 3.23977 3.23977 3.28885 3.28885 3.33794 3.33794 3.38703 3.38703 3.43612 3.43612 3.4852 3.4852 3.53429 3.53429 3.58338 3.58338 3.63247 3.63247 3.68155 3.68155 3.73064 3.73064 3.77973 3.77973 3.82882 3.82882 3.8779 3.8779 3.92699 3.92699 3.97608 3.97608 4.02517 4.02517 4.07425 4.07425 4.12334 4.12334 4.17243 4.17243 4.22152 4.22152 4.2706 4.2706 4.31969 4.31969 4.36878 4.36878 4.41786 4.41786 4.46695 4.46695 4.51604 4.51604 4.56513 4.56513 4.61421 4.61421 4.6633 4.6633 4.71239 4.71239 4.76148 4.76148 4.81056 4.81056 4.85965 4.85965 4.90874 4.90874 4.95783 4.95783 5.00691 5.00691 5.056 5.056 5.10509 5.10509 5.15418 5.15418 5.20326 5.20326 5.25235 5.25235 5.30144 5.30144 5.35052 5.35052 5.39961 5.39961 5.4487 5.4487 5.49779 5.49779 5.54687 5.54687 5.59596 5.59596 5.64505 5.64505 5.69414 5.69414 5.74322 5.74322 5.79231 5.79231 5.8414 5.8414 5.89049 5.89049 5.93957 5.93957 5.98866 5.98866 6.03775 6.03775 6.08684 6.08684 6.13592 6.13592 6.18501 6.18501 6.2341 6.2341 6.28319 6.28319 6.33227 6.33227 6.38136 6.38136 6.43045 6.43045 6.47953 6.47953 6.52862 6.52862 6.57771 6.57771 6.6268 6.6268 6.67588 6.67588 6.72497 6.72497 6.77406 6.77406 6.82315 6.82315 6.87223 6.87223 6.92132 6.92132 6.97041 6.97041 7.0195 7.0195 7.06858 7.06858 7.11767 7.11767 7.16676 7.16676 7.21585 7.21585 7.26493 7.26493 7.31402 7.31402 7.36311 7.36311 7.4122 7.4122 7.46128 7.46128 7.51037 7.51037 7.55946 7.55946 7.60854 7.60854 7.65763 7.65763 7.70672 7.70672 7.75581 7.75581 7.80489 7.80489 7.85398 7.85398 7.90307 7.90307 7.95216 7.95216 8.00124 8.00124 8.05033 8.05033 8.09942 8.09942 8.14851 8.14851 8.19759 8.19759 8.24668 8.24668 8.29577 8.29577 8.34486 8.34486 8.39394 8.39394 8.44303 8.44303 8.49212 8.49212 8.54121 8.54121 8.59029 8.59029 8.63938 8.63938 8.68847 8.68847 8.73755 8.73755 8.78664 8.78664 8.83573 8.83573 8.88482 8.88482 8.9339 8.9339 8.98299 8.98299 9.03208 9.03208 9.08117 9.08117 9.13025 9.13025 9.17934 9.17934 9.22843 9.22843 9.27752 9.27752 9.3266 9.3266 9.37569 9.37569 9.42478 9.42478 9.47387 9.47387 9.52295 9.52295 9.57204 9.57204 9.62113 9.62113 9.67021 9.67021 9.7193 9.7193 9.76839 9.76839 9.81748 9.81748 9.86656 9.86656 9.91565 9.91565 9.96474 9.96474 10.0138 10.0138 10.0629 10.0629 10.112 10.112 10.1611 10.1611 10.2102 10.2102 10.2593 10.2593 10.3084 10.3084 10.3574 10.3574 10.4065 10.4065 10.4556 10.4556 10.5047 10.5047 10.5538 10.5538 10.6029 10.6029 10.652 10.652 10.701 10.701 10.7501 10.7501 10.7992 10.7992 10.8483 10.8483 10.8974 10.8974 10.9465 10.9465 10.9956 10.9956 11.0447 11.0447 11.0937 11.0937 11.1428 11.1428 11.1919 11.1919 11.241 11.241 11.2901 11.2901 11.3392 11.3392 11.3883 11.3883 11.4374 11.4374 11.4864 11.4864 11.5355 11.5355 11.5846 11.5846 11.6337 11.6337 11.6828 11.6828 11.7319 11.7319 11.781 11.781 11.8301 11.8301 11.8791 11.8791 11.9282 11.9282 11.9773 11.9773 12.0264 12.0264 12.0755 12.0755 12.1246 12.1246 12.1737 12.1737 12.2228 12.2228 12.2718 12.2718 12.3209 12.3209 12.37 12.37 12.4191 12.4191 12.4682 12.4682 12.5173 12.5173 12.5664 
