# vtk DataFile Version 3.0
#This file was generated by the deal.II library on 2026/3/10 at 19:06:39
ASCII
DATASET UNSTRUCTURED_GRID

POINTS 512 double
0 0 0
0.0490874 0 0
0.0490874 0 0
0.0981748 0 0
0.0981748 0 0
0.147262 0 0
0.147262 0 0
0.19635 0 0
0.19635 0 0
0.245437 0 0
0.245437 0 0
0.294524 0 0
0.294524 0 0
0.343612 0 0
0.343612 0 0
0.392699 0 0
0.392699 0 0
0.441786 0 0
0.441786 0 0
0.490874 0 0
0.490874 0 0
0.539961 0 0
0.539961 0 0
0.589049 0 0
0.589049 0 0
0.638136 0 0
0.638136 0 0
0.687223 0 0
0.687223 0 0
0.736311 0 0
0.736311 0 0
0.785398 0 0
0.785398 0 0
0.834486 0 0
0.834486 0 0
0.883573 0 0
0.883573 0 0
0.93266 0 0
0.93266 0 0
0.981748 0 0
0.981748 0 0
1.03084 0 0
1.03084 0 0
1.07992 0 0
1.07992 0 0
1.12901 0 0
1.12901 0 0
1.1781 0 0
1.1781 0 0
1.22718 0 0
1.22718 0 0
1.27627 0 0
1.27627 0 0
1.32536 0 0
1.32536 0 0
1.37445 0 0
1.37445 0 0
1.42353 0 0
1.42353 0 0
1.47262 0 0
1.47262 0 0
1.52171 0 0
1.52171 0 0
1.5708 0 0
1.5708 0 0
1.61988 0 0
1.61988 0 0
1.66897 0 0
1.66897 0 0
1.71806 0 0
1.71806 0 0
1.76715 0 0
1.76715 0 0
1.81623 0 0
1.81623 0 0
1.86532 0 0
1.86532 0 0
1.91441 0 0
1.91441 0 0
1.9635 0 0
1.9635 0 0
2.01258 0 0
2.01258 0 0
2.06167 0 0
2.06167 0 0
2.11076 0 0
2.11076 0 0
2.15984 0 0
2.15984 0 0
2.20893 0 0
2.20893 0 0
2.25802 0 0
2.25802 0 0
2.30711 0 0
2.30711 0 0
2.35619 0 0
2.35619 0 0
2.40528 0 0
2.40528 0 0
2.45437 0 0
2.45437 0 0
2.50346 0 0
2.50346 0 0
2.55254 0 0
2.55254 0 0
2.60163 0 0
2.60163 0 0
2.65072 0 0
2.65072 0 0
2.69981 0 0
2.69981 0 0
2.74889 0 0
2.74889 0 0
2.79798 0 0
2.79798 0 0
2.84707 0 0
2.84707 0 0
2.89616 0 0
2.89616 0 0
2.94524 0 0
2.94524 0 0
2.99433 0 0
2.99433 0 0
3.04342 0 0
3.04342 0 0
3.09251 0 0
3.09251 0 0
3.14159 0 0
3.14159 0 0
3.19068 0 0
3.19068 0 0
3.23977 0 0
3.23977 0 0
3.28885 0 0
3.28885 0 0
3.33794 0 0
3.33794 0 0
3.38703 0 0
3.38703 0 0
3.43612 0 0
3.43612 0 0
3.4852 0 0
3.4852 0 0
3.53429 0 0
3.53429 0 0
3.58338 0 0
3.58338 0 0
3.63247 0 0
3.63247 0 0
3.68155 0 0
3.68155 0 0
3.73064 0 0
3.73064 0 0
3.77973 0 0
3.77973 0 0
3.82882 0 0
3.82882 0 0
3.8779 0 0
3.8779 0 0
3.92699 0 0
3.92699 0 0
3.97608 0 0
3.97608 0 0
4.02517 0 0
4.02517 0 0
4.07425 0 0
4.07425 0 0
4.12334 0 0
4.12334 0 0
4.17243 0 0
4.17243 0 0
4.22152 0 0
4.22152 0 0
4.2706 0 0
4.2706 0 0
4.31969 0 0
4.31969 0 0
4.36878 0 0
4.36878 0 0
4.41786 0 0
4.41786 0 0
4.46695 0 0
4.46695 0 0
4.51604 0 0
4.51604 0 0
4.56513 0 0
4.56513 0 0
4.61421 0 0
4.61421 0 0
4.6633 0 0
4.6633 0 0
4.71239 0 0
4.71239 0 0
4.76148 0 0
4.76148 0 0
4.81056 0 0
4.81056 0 0
4.85965 0 0
4.85965 0 0
4.90874 0 0
4.90874 0 0
4.95783 0 0
4.95783 0 0
5.00691 0 0
5.00691 0 0
5.056 0 0
5.056 0 0
5.10509 0 0
5.10509 0 0
5.15418 0 0
5.15418 0 0
5.20326 0 0
5.20326 0 0
5.25235 0 0
5.25235 0 0
5.30144 0 0
5.30144 0 0
5.35052 0 0
5.35052 0 0
5.39961 0 0
5.39961 0 0
5.4487 0 0
5.4487 0 0
5.49779 0 0
5.49779 0 0
5.54687 0 0
5.54687 0 0
5.59596 0 0
5.59596 0 0
5.64505 0 0
5.64505 0 0
5.69414 0 0
5.69414 0 0
5.74322 0 0
5.74322 0 0
5.79231 0 0
5.79231 0 0
5.8414 0 0
5.8414 0 0
5.89049 0 0
5.89049 0 0
5.93957 0 0
5.93957 0 0
5.98866 0 0
5.98866 0 0
6.03775 0 0
6.03775 0 0
6.08684 0 0
6.08684 0 0
6.13592 0 0
6.13592 0 0
6.18501 0 0
6.18501 0 0
6.2341 0 0
6.2341 0 0
6.28319 0 0
6.28319 0 0
6.33227 0 0
6.33227 0 0
6.38136 0 0
6.38136 0 0
6.43045 0 0
6.43045 0 0
6.47953 0 0
6.47953 0 0
6.52862 0 0
6.52862 0 0
6.57771 0 0
6.57771 0 0
6.6268 0 0
6.6268 0 0
6.67588 0 0
6.67588 0 0
6.72497 0 0
6.72497 0 0
6.77406 0 0
6.77406 0 0
6.82315 0 0
6.82315 0 0
6.87223 0 0
6.87223 0 0
6.92132 0 0
6.92132 0 0
6.97041 0 0
6.97041 0 0
7.0195 0 0
7.0195 0 0
7.06858 0 0
7.06858 0 0
7.11767 0 0
7.11767 0 0
7.16676 0 0
7.16676 0 0
7.21585 0 0
7.21585 0 0
7.26493 0 0
7.26493 0 0
7.31402 0 0
7.31402 0 0
7.36311 0 0
7.36311 0 0
7.4122 0 0
7.4122 0 0
7.46128 0 0
7.46128 0 0
7.51037 0 0
7.51037 0 0
7.55946 0 0
7.55946 0 0
7.60854 0 0
7.60854 0 0
7.65763 0 0
7.65763 0 0
7.70672 0 0
7.70672 0 0
7.75581 0 0
7.75581 0 0
7.80489 0 0
7.80489 0 0
7.85398 0 0
7.85398 0 0
7.90307 0 0
7.90307 0 0
7.95216 0 0
7.95216 0 0
8.00124 0 0
8.00124 0 0
8.05033 0 0
8.05033 0 0
8.09942 0 0
8.09942 0 0
8.14851 0 0
8.14851 0 0
8.19759 0 0
8.19759 0 0
8.24668 0 0
8.24668 0 0
8.29577 0 0
8.29577 0 0
8.34486 0 0
8.34486 0 0
8.39394 0 0
8.39394 0 0
8.44303 0 0
8.44303 0 0
8.49212 0 0
8.49212 0 0
8.54121 0 0
8.54121 0 0
8.59029 0 0
8.59029 0 0
8.63938 0 0
8.63938 0 0
8.68847 0 0
8.68847 0 0
8.73755 0 0
8.73755 0 0
8.78664 0 0
8.78664 0 0
8.83573 0 0
8.83573 0 0
8.88482 0 0
8.88482 0 0
8.9339 0 0
8.9339 0 0
8.98299 0 0
8.98299 0 0
9.03208 0 0
9.03208 0 0
9.08117 0 0
9.08117 0 0
9.13025 0 0
9.13025 0 0
9.17934 0 0
9.17934 0 0
9.22843 0 0
9.22843 0 0
9.27752 0 0
9.27752 0 0
9.3266 0 0
9.3266 0 0
9.37569 0 0
9.37569 0 0
9.42478 0 0
9.42478 0 0
9.47387 0 0
9.47387 0 0
9.52295 0 0
9.52295 0 0
9.57204 0 0
9.57204 0 0
9.62113 0 0
9.62113 0 0
9.67021 0 0
9.67021 0 0
9.7193 0 0
9.7193 0 0
9.76839 0 0
9.76839 0 0
9.81748 0 0
9.81748 0 0
9.86656 0 0
9.86656 0 0
9.91565 0 0
9.91565 0 0
9.96474 0 0
9.96474 0 0
10.0138 0 0
10.0138 0 0
10.0629 0 0
10.0629 0 0
10.112 0 0
10.112 0 0
10.1611 0 0
10.1611 0 0
10.2102 0 0
10.2102 0 0
10.2593 0 0
10.2593 0 0
10.3084 0 0
10.3084 0 0
10.3574 0 0
10.3574 0 0
10.4065 0 0
10.4065 0 0
10.4556 0 0
10.4556 0 0
10.5047 0 0
10.5047 0 0
10.5538 0 0
10.5538 0 0
10.6029 0 0
10.6029 0 0
10.652 0 0
10.652 0 0
10.701 0 0
10.701 0 0
10.7501 0 0
10.7501 0 0
10.7992 0 0
10.7992 0 0
10.8483 0 0
10.8483 0 0
10.8974 0 0
10.8974 0 0
10.9465 0 0
10.9465 0 0
10.9956 0 0
10.9956 0 0
11.0447 0 0
11.0447 0 0
11.0937 0 0
11.0937 0 0
11.1428 0 0
11.1428 0 0
11.1919 0 0
11.1919 0 0
11.241 0 0
11.241 0 0
11.2901 0 0
11.2901 0 0
11.3392 0 0
11.3392 0 0
11.3883 0 0
11.3883 0 0
11.4374 0 0
11.4374 0 0
11.4864 0 0
11.4864 0 0
11.5355 0 0
11.5355 0 0
11.5846 0 0
11.5846 0 0
11.6337 0 0
11.6337 0 0
11.6828 0 0
11.6828 0 0
11.7319 0 0
11.7319 0 0
11.781 0 0
11.781 0 0
11.8301 0 0
11.8301 0 0
11.8791 0 0
11.8791 0 0
11.9282 0 0
11.9282 0 0
11.9773 0 0
11.9773 0 0
12.0264 0 0
12.0264 0 0
12.0755 0 0
12.0755 0 0
12.1246 0 0
12.1246 0 0
12.1737 0 0
12.1737 0 0
12.2228 0 0
12.2228 0 0
12.2718 0 0
12.2718 0 0
12.3209 0 0
12.3209 0 0
12.37 0 0
12.37 0 0
12.4191 0 0
12.4191 0 0
12.4682 0 0
12.4682 0 0
12.5173 0 0
12.5173 0 0
12.5664 0 0

CELLS 256 768
2	0	1
2	2	3
2	4	5
2	6	7
2	8	9
2	10	11
2	12	13
2	14	15
2	16	17
2	18	19
2	20	21
2	22	23
2	24	25
2	26	27
2	28	29
2	30	31
2	32	33
2	34	35
2	36	37
2	38	39
2	40	41
2	42	43
2	44	45
2	46	47
2	48	49
2	50	51
2	52	53
2	54	55
2	56	57
2	58	59
2	60	61
2	62	63
2	64	65
2	66	67
2	68	69
2	70	71
2	72	73
2	74	75
2	76	77
2	78	79
2	80	81
2	82	83
2	84	85
2	86	87
2	88	89
2	90	91
2	92	93
2	94	95
2	96	97
2	98	99
2	100	101
2	102	103
2	104	105
2	106	107
2	108	109
2	110	111
2	112	113
2	114	115
2	116	117
2	118	119
2	120	121
2	122	123
2	124	125
2	126	127
2	128	129
2	130	131
2	132	133
2	134	135
2	136	137
2	138	139
2	140	141
2	142	143
2	144	145
2	146	147
2	148	149
2	150	151
2	152	153
2	154	155
2	156	157
2	158	159
2	160	161
2	162	163
2	164	165
2	166	167
2	168	169
2	170	171
2	172	173
2	174	175
2	176	177
2	178	179
2	180	181
2	182	183
2	184	185
2	186	187
2	188	189
2	190	191
2	192	193
2	194	195
2	196	197
2	198	199
2	200	201
2	202	203
2	204	205
2	206	207
2	208	209
2	210	211
2	212	213
2	214	215
2	216	217
2	218	219
2	220	221
2	222	223
2	224	225
2	226	227
2	228	229
2	230	231
2	232	233
2	234	235
2	236	237
2	238	239
2	240	241
2	242	243
2	244	245
2	246	247
2	248	249
2	250	251
2	252	253
2	254	255
2	256	257
2	258	259
2	260	261
2	262	263
2	264	265
2	266	267
2	268	269
2	270	271
2	272	273
2	274	275
2	276	277
2	278	279
2	280	281
2	282	283
2	284	285
2	286	287
2	288	289
2	290	291
2	292	293
2	294	295
2	296	297
2	298	299
2	300	301
2	302	303
2	304	305
2	306	307
2	308	309
2	310	311
2	312	313
2	314	315
2	316	317
2	318	319
2	320	321
2	322	323
2	324	325
2	326	327
2	328	329
2	330	331
2	332	333
2	334	335
2	336	337
2	338	339
2	340	341
2	342	343
2	344	345
2	346	347
2	348	349
2	350	351
2	352	353
2	354	355
2	356	357
2	358	359
2	360	361
2	362	363
2	364	365
2	366	367
2	368	369
2	370	371
2	372	373
2	374	375
2	376	377
2	378	379
2	380	381
2	382	383
2	384	385
2	386	387
2	388	389
2	390	391
2	392	393
2	394	395
2	396	397
2	398	399
2	400	401
2	402	403
2	404	405
2	406	407
2	408	409
2	410	411
2	412	413
2	414	415
2	416	417
2	418	419
2	420	421
2	422	423
2	424	425
2	426	427
2	428	429
2	430	431
2	432	433
2	434	435
2	436	437
2	438	439
2	440	441
2	442	443
2	444	445
2	446	447
2	448	449
2	450	451
2	452	453
2	454	455
2	456	457
2	458	459
2	460	461
2	462	463
2	464	465
2	466	467
2	468	469
2	470	471
2	472	473
2	474	475
2	476	477
2	478	479
2	480	481
2	482	483
2	484	485
2	486	487
2	488	489
2	490	491
2	492	493
2	494	495
2	496	497
2	498	499
2	500	501
2	502	503
2	504	505
2	506	507
2	508	509
2	510	511

CELL_TYPES 256
 3 3 3 3 3 3 3 3 3 3 3 3 3 3 3 3 3 3 3 3 3 3 3 3 3 3 3 3 3 3 3 3 3 3 3 3 3 3 3 3 3 3 3 3 3 3 3 3 3 3 3 3 3 3 3 3 3 3 3 3 3 3 3 3 3 3 3 3 3 3 3 3 3 3 3 3 3 3 3 3 3 3 3 3 3 3 3 3 3 3 3 3 3 3 3 3 3 3 3 3 3 3 3 3 3 3 3 3 3 3 3 3 3 3 3 3 3 3 3 3 3 3 3 3 3 3 3 3 3 3 3 3 3 3 3 3 3 3 3 3 3 3 3 3 3 3 3 3 3 3 3 3 3 3 3 3 3 3 3 3 3 3 3 3 3 3 3 3 3 3 3 3 3 3 3 3 3 3 3 3 3 3 3 3 3 3 3 3 3 3 3 3 3 3 3 3 3 3 3 3 3 3 3 3 3 3 3 3 3 3 3 3 3 3 3 3 3 3 3 3 3 3 3 3 3 3 3 3 3 3 3 3 3 3 3 3 3 3 3 3 3 3 3 3 3 3 3 3 3 3 3 3 3 3 3 3
POINT_DATA 512
VECTORS electric_field double
-12.0261 0 0
-11.977 0 0
-11.977 0 0
-11.9279 0 0
-11.9279 0 0
-11.8788 0 0
-11.8788 0 0
-11.8297 0 0
-11.8297 0 0
-11.7806 0 0
-11.7806 0 0
-11.7315 0 0
-11.7315 0 0
-11.6824 0 0
-11.6824 0 0
-11.6334 0 0
-11.6334 0 0
-11.5843 0 0
-11.5843 0 0
-11.5352 0 0
-11.5352 0 0
-11.4861 0 0
-11.4861 0 0
-11.437 0 0
-11.437 0 0
-11.3879 0 0
-11.3879 0 0
-11.3388 0 0
-11.3388 0 0
-11.2897 0 0
-11.2897 0 0
-11.2407 0 0
-11.2407 0 0
-11.1916 0 0
-11.1916 0 0
-11.1425 0 0
-11.1425 0 0
-11.0934 0 0
-11.0934 0 0
-11.0443 0 0
-11.0443 0 0
-10.9952 0 0
-10.9952 0 0
-10.9461 0 0
-10.9461 0 0
-10.897 0 0
-10.897 0 0
-10.848 0 0
-10.848 0 0
-10.7989 0 0
-10.7989 0 0
-10.7498 0 0
-10.7498 0 0
-10.7007 0 0
-10.7007 0 0
-10.6516 0 0
-10.6516 0 0
-10.6025 0 0
-10.6025 0 0
-10.5534 0 0
-10.5534 0 0
-10.5043 0 0
-10.5043 0 0
-10.4553 0 0
-10.4553 0 0
-10.4062 0 0
-10.4062 0 0
-10.3571 0 0
-10.3571 0 0
-10.308 0 0
-10.308 0 0
-10.2589 0 0
-10.2589 0 0
-10.2098 0 0
-10.2098 0 0
-10.1607 0 0
-10.1607 0 0
-10.1116 0 0
-10.1116 0 0
-10.0626 0 0
-10.0626 0 0
-10.0135 0 0
-10.0135 0 0
-9.96438 0 0
-9.96438 0 0
-9.9153 0 0
-9.9153 0 0
-9.86621 0 0
-9.86621 0 0
-9.81712 0 0
-9.81712 0 0
-9.76803 0 0
-9.76803 0 0
-9.71895 0 0
-9.71895 0 0
-9.66986 0 0
-9.66986 0 0
-9.62077 0 0
-9.62077 0 0
-9.57168 0 0
-9.57168 0 0
-9.5226 0 0
-9.5226 0 0
-9.47351 0 0
-9.47351 0 0
-9.42442 0 0
-9.42442 0 0
-9.37533 0 0
-9.37533 0 0
-9.32625 0 0
-9.32625 0 0
-9.27716 0 0
-9.27716 0 0
-9.22807 0 0
-9.22807 0 0
-9.17899 0 0
-9.17899 0 0
-9.1299 0 0
-9.1299 0 0
-9.08081 0 0
-9.08081 0 0
-9.03172 0 0
-9.03172 0 0
-8.98264 0 0
-8.98264 0 0
-8.93355 0 0
-8.93355 0 0
-8.88446 0 0
-8.88446 0 0
-8.83537 0 0
-8.83537 0 0
-8.78629 0 0
-8.78629 0 0
-8.7372 0 0
-8.7372 0 0
-8.68811 0 0
-8.68811 0 0
-8.63902 0 0
-8.63902 0 0
-8.58994 0 0
-8.58994 0 0
-8.54085 0 0
-8.54085 0 0
-8.49176 0 0
-8.49176 0 0
-8.44267 0 0
-8.44267 0 0
-8.39359 0 0
-8.39359 0 0
-8.3445 0 0
-8.3445 0 0
-8.29541 0 0
-8.29541 0 0
-8.24632 0 0
-8.24632 0 0
-8.19724 0 0
-8.19724 0 0
-8.14815 0 0
-8.14815 0 0
-8.09906 0 0
-8.09906 0 0
-8.04998 0 0
-8.04998 0 0
-8.00089 0 0
-8.00089 0 0
-7.9518 0 0
-7.9518 0 0
-7.90271 0 0
-7.90271 0 0
-7.85363 0 0
-7.85363 0 0
-7.80454 0 0
-7.80454 0 0
-7.75545 0 0
-7.75545 0 0
-7.70636 0 0
-7.70636 0 0
-7.65728 0 0
-7.65728 0 0
-7.60819 0 0
-7.60819 0 0
-7.5591 0 0
-7.5591 0 0
-7.51001 0 0
-7.51001 0 0
-7.46093 0 0
-7.46093 0 0
-7.41184 0 0
-7.41184 0 0
-7.36275 0 0
-7.36275 0 0
-7.31366 0 0
-7.31366 0 0
-7.26458 0 0
-7.26458 0 0
-7.21549 0 0
-7.21549 0 0
-7.1664 0 0
-7.1664 0 0
-7.11732 0 0
-7.11732 0 0
-7.06823 0 0
-7.06823 0 0
-7.01914 0 0
-7.01914 0 0
-6.97005 0 0
-6.97005 0 0
-6.92097 0 0
-6.92097 0 0
-6.87188 0 0
-6.87188 0 0
-6.82279 0 0
-6.82279 0 0
-6.7737 0 0
-6.7737 0 0
-6.72462 0 0
-6.72462 0 0
-6.67553 0 0
-6.67553 0 0
-6.62644 0 0
-6.62644 0 0
-6.57735 0 0
-6.57735 0 0
-6.52827 0 0
-6.52827 0 0
-6.47918 0 0
-6.47918 0 0
-6.43009 0 0
-6.43009 0 0
-6.381 0 0
-6.381 0 0
-6.33192 0 0
-6.33192 0 0
-6.28283 0 0
-6.28283 0 0
-6.23374 0 0
-6.23374 0 0
-6.18465 0 0
-6.18465 0 0
-6.13557 0 0
-6.13557 0 0
-6.08648 0 0
-6.08648 0 0
-6.03739 0 0
-6.03739 0 0
-5.98831 0 0
-5.98831 0 0
-5.93922 0 0
-5.93922 0 0
-5.89013 0 0
-5.89013 0 0
-5.84104 0 0
-5.84104 0 0
-5.79196 0 0
-5.79196 0 0
-5.74287 0 0
-5.74287 0 0
-5.69378 0 0
-5.69378 0 0
-5.64469 0 0
-5.64469 0 0
-5.59561 0 0
-5.59561 0 0
-5.54652 0 0
-5.54652 0 0
-5.49743 0 0
-5.49743 0 0
-5.44834 0 0
-5.44834 0 0
-5.39926 0 0
-5.39926 0 0
-5.35017 0 0
-5.35017 0 0
-5.30108 0 0
-5.30108 0 0
-5.25199 0 0
-5.25199 0 0
-5.20291 0 0
-5.20291 0 0
-5.15382 0 0
-5.15382 0 0
-5.10473 0 0
-5.10473 0 0
-5.05564 0 0
-5.05564 0 0
-5.00656 0 0
-5.00656 0 0
-4.95747 0 0
-4.95747 0 0
-4.90838 0 0
-4.90838 0 0
-4.8593 0 0
-4.8593 0 0
-4.81021 0 0
-4.81021 0 0
-4.76112 0 0
-4.76112 0 0
-4.71203 0 0
-4.71203 0 0
-4.66295 0 0
-4.66295 0 0
-4.61386 0 0
-4.61386 0 0
-4.56477 0 0
-4.56477 0 0
-4.51568 0 0
-4.51568 0 0
-4.4666 0 0
-4.4666 0 0
-4.41751 0 0
-4.41751 0 0
-4.36842 0 0
-4.36842 0 0
-4.31933 0 0
-4.31933 0 0
-4.27025 0 0
-4.27025 0 0
-4.22116 0 0
-4.22116 0 0
-4.17207 0 0
-4.17207 0 0
-4.12298 0 0
-4.12298 0 0
-4.0739 0 0
-4.0739 0 0
-4.02481 0 0
-4.02481 0 0
-3.97572 0 0
-3.97572 0 0
-3.92664 0 0
-3.92664 0 0
-3.87755 0 0
-3.87755 0 0
-3.82846 0 0
-3.82846 0 0
-3.77937 0 0
-3.77937 0 0
-3.73029 0 0
-3.73029 0 0
-3.6812 0 0
-3.6812 0 0
-3.63211 0 0
-3.63211 0 0
-3.58302 0 0
-3.58302 0 0
-3.53394 0 0
-3.53394 0 0
-3.48485 0 0
-3.48485 0 0
-3.43576 0 0
-3.43576 0 0
-3.38667 0 0
-3.38667 0 0
-3.33759 0 0
-3.33759 0 0
-3.2885 0 0
-3.2885 0 0
-3.23941 0 0
-3.23941 0 0
-3.19032 0 0
-3.19032 0 0
-3.14124 0 0
-3.14124 0 0
-3.09215 0 0
-3.09215 0 0
-3.04306 0 0
-3.04306 0 0
-2.99397 0 0
-2.99397 0 0
-2.94489 0 0
-2.94489 0 0
-2.8958 0 0
-2.8958 0 0
-2.84671 0 0
-2.84671 0 0
-2.79763 0 0
-2.79763 0 0
-2.74854 0 0
-2.74854 0 0
-2.69945 0 0
-2.69945 0 0
-2.65036 0 0
-2.65036 0 0
-2.60128 0 0
-2.60128 0 0
-2.55219 0 0
-2.55219 0 0
-2.5031 0 0
-2.5031 0 0
-2.45401 0 0
-2.45401 0 0
-2.40493 0 0
-2.40493 0 0
-2.35584 0 0
-2.35586 0 0
-2.30682 0 0
-2.30677 0 0
-2.25784 0 0
-2.25785 0 0
-2.20879 0 0
-2.20878 0 0
-2.1597 0 0
-2.1597 0 0
-2.11061 0 0
-2.11061 0 0
-2.06152 0 0
-2.06152 0 0
-2.01243 0 0
-2.01243 0 0
-1.96335 0 0
-1.96335 0 0
-1.91426 0 0
-1.91426 0 0
-1.86517 0 0
-1.86517 0 0
-1.8161 0 0
-1.8161 0 0
-1.76701 0 0
-1.76701 0 0
-1.71792 0 0
-1.71792 0 0
-1.66883 0 0
-1.66883 0 0
-1.61975 0 0
-1.61975 0 0
-1.57066 0 0
-1.57085 0 0
-1.52216 0 0
-1.5221 0 0
-1.47302 0 0
-1.47302 0 0
-1.42393 0 0
-1.42393 0 0
-1.37484 0 0
-1.37484 0 0
-1.32575 0 0
-1.32575 0 0
-1.27667 0 0
-1.27667 0 0
-1.22758 0 0
-1.22757 0 0
-1.17852 0 0
-1.17855 0 0
-1.12954 0 0
-1.12954 0 0
-1.08054 0 0
-1.08054 0 0
-1.03156 0 0
-1.03159 0 0
-0.982592 0 0
-0.982597 0 0
-0.933832 0 0
-0.933908 0 0
-0.885433 0 0
-0.885433 0 0
-0.838855 0 0
-0.838888 0 0
-0.792884 0 0
-0.79286 0 0
-0.748968 0 0
-0.749037 0 0
-0.707384 0 0
-0.707432 0 0
-0.667467 0 0
-0.667603 0 0
-0.629303 0 0
-0.629398 0 0
-0.593081 0 0
-0.593021 0 0
-0.559105 0 0
-0.558995 0 0
-0.525924 0 0
-0.525976 0 0
-0.49528 0 0
-0.495422 0 0
-0.466271 0 0
-0.466341 0 0
-0.438694 0 0
-0.438751 0 0
-0.412536 0 0
-0.412497 0 0
-0.387248 0 0
-0.387323 0 0
-0.362771 0 0
-0.362801 0 0
-0.339379 0 0
-0.339492 0 0
-0.316166 0 0
-0.316247 0 0
-0.293948 0 0
-0.293758 0 0
-0.271416 0 0
-0.271443 0 0
-0.249689 0 0
-0.249863 0 0
-0.227499 0 0
-0.227615 0 0
-0.205893 0 0
-0.205888 0 0
-0.18414 0 0
-0.184123 0 0
-0.162169 0 0
-0.162238 0 0
-0.140585 0 0
-0.140597 0 0
-0.119205 0 0
-0.119078 0 0
-0.0982229 0 0
-0.0981748 0 0
-0.0490874 0 0
-0.0490874 0 0
-5.45697e-11 0 0
SCALARS potential double 1
LOOKUP_TABLE default
0 0.589123 0.589123 1.17584 1.17584 1.76014 1.76014 2.34203 2.34203 2.92152 2.92152 3.49859 3.49859 4.07326 4.07326 4.64551 4.64551 5.21536 5.21536 5.7828 5.7828 6.34782 6.34782 6.91044 6.91044 7.47065 7.47065 8.02845 8.02845 8.58384 8.58384 9.13682 9.13682 9.68738 9.68738 10.2355 10.2355 10.7813 10.7813 11.3246 11.3246 11.8656 11.8656 12.4041 12.4041 12.9402 12.9402 13.4739 13.4739 14.0052 14.0052 14.5341 14.5341 15.0606 15.0606 15.5846 15.5846 16.1063 16.1063 16.6255 16.6255 17.1424 17.1424 17.6568 17.6568 18.1688 18.1688 18.6784 18.6784 19.1856 19.1856 19.6904 19.6904 20.1928 20.1928 20.6927 20.6927 21.1903 21.1903 21.6854 21.6854 22.1782 22.1782 22.6685 22.6685 23.1564 23.1564 23.6419 23.6419 24.125 24.125 24.6057 24.6057 25.084 25.084 25.5599 25.5599 26.0334 26.0334 26.5044 26.5044 26.9731 26.9731 27.4393 27.4393 27.9031 27.9031 28.3645 28.3645 28.8235 28.8235 29.2801 29.2801 29.7343 29.7343 30.1861 30.1861 30.6355 30.6355 31.0824 31.0824 31.527 31.527 31.9691 31.9691 32.4088 32.4088 32.8462 32.8462 33.2811 33.2811 33.7136 33.7136 34.1437 34.1437 34.5713 34.5713 34.9966 34.9966 35.4195 35.4195 35.8399 35.8399 36.258 36.258 36.6736 36.6736 37.0868 37.0868 37.4976 37.4976 37.9061 37.9061 38.312 38.312 38.7156 38.7156 39.1168 39.1168 39.5156 39.5156 39.9119 39.9119 40.3059 40.3059 40.6974 40.6974 41.0865 41.0865 41.4733 41.4733 41.8576 41.8576 42.2395 42.2395 42.619 42.619 42.996 42.996 43.3707 43.3707 43.743 43.743 44.1128 44.1128 44.4803 44.4803 44.8453 44.8453 45.2079 45.2079 45.5681 45.5681 45.9259 45.9259 46.2813 46.2813 46.6343 46.6343 46.9849 46.9849 47.3331 47.3331 47.6788 47.6788 48.0222 48.0222 48.3631 48.3631 48.7016 48.7016 49.0377 49.0377 49.3715 49.3715 49.7028 49.7028 50.0316 50.0316 50.3581 50.3581 50.6822 50.6822 51.0039 51.0039 51.3231 51.3231 51.6399 51.6399 51.9544 51.9544 52.2664 52.2664 52.576 52.576 52.8832 52.8832 53.188 53.188 53.4904 53.4904 53.7904 53.7904 54.0879 54.0879 54.3831 54.3831 54.6758 54.6758 54.9662 54.9662 55.2541 55.2541 55.5396 55.5396 55.8227 55.8227 56.1034 56.1034 56.3817 56.3817 56.6576 56.6576 56.931 56.931 57.2021 57.2021 57.4708 57.4708 57.737 57.737 58.0008 58.0008 58.2622 58.2622 58.5213 58.5213 58.7779 58.7779 59.0321 59.0321 59.2838 59.2838 59.5332 59.5332 59.7802 59.7802 60.0247 60.0247 60.2669 60.2669 60.5066 60.5066 60.7439 60.7439 60.9788 60.9788 61.2114 61.2114 61.4415 61.4415 61.6691 61.6691 61.8944 61.8944 62.1173 62.1173 62.3377 62.3377 62.5558 62.5558 62.7714 62.7714 62.9847 62.9847 63.1955 63.1955 63.4039 63.4039 63.6099 63.6099 63.8135 63.8135 64.0147 64.0147 64.2134 64.2134 64.4098 64.4098 64.6038 64.6038 64.7953 64.7953 64.9844 64.9844 65.1712 65.1712 65.3555 65.3555 65.5374 65.5374 65.7169 65.7169 65.894 65.894 66.0686 66.0686 66.2409 66.2409 66.4108 66.4108 66.5782 66.5782 66.7432 66.7432 66.9059 66.9059 67.0661 67.0661 67.2239 67.2239 67.3793 67.3793 67.5323 67.5323 67.6829 67.6829 67.831 67.831 67.9768 67.9768 68.1202 68.1202 68.2611 68.2611 68.3996 68.3996 68.5358 68.5358 68.6695 68.6695 68.8008 68.8008 68.9297 68.9297 69.0562 69.0562 69.1802 69.1802 69.3019 69.3019 69.4212 69.4212 69.538 69.538 69.6524 69.6524 69.7645 69.7645 69.8741 69.8741 69.9813 69.9813 70.0861 70.0861 70.1885 70.1885 70.2885 70.2885 70.3861 70.3861 70.4813 70.4813 70.574 70.574 70.6644 70.6644 70.7523 70.7523 70.8379 70.8379 70.921 70.921 71.0017 71.0017 71.08 71.08 71.1559 71.1559 71.2294 71.2294 71.3005 71.3005 71.3692 71.3692 71.4355 71.4355 71.4994 71.4994 71.5608 71.5608 71.6199 71.6199 71.6765 71.6765 71.7308 71.7308 71.7826 71.7826 71.8321 71.8321 71.8791 71.8791 71.9237 71.9237 71.966 71.966 72.0061 72.0061 72.0439 72.0439 72.0797 72.0797 72.1134 72.1134 72.1452 72.1452 72.1752 72.1752 72.2035 72.2035 72.2301 72.2301 72.2552 72.2552 72.2788 72.2788 72.301 72.301 72.3219 72.3219 72.3415 72.3415 72.3599 72.3599 72.3771 72.3771 72.3932 72.3932 72.4082 72.4082 72.4221 72.4221 72.4349 72.4349 72.4466 72.4466 72.4572 72.4572 72.4668 72.4668 72.4753 72.4753 72.4827 72.4827 72.4891 72.4891 72.4944 72.4944 72.498 72.498 72.4993 
SCALARS x_coordinate double 1
LOOKUP_TABLE default
0 0.0490874 0.0490874 0.0981748 0.0981748 0.147262 0.147262 0.19635 0.19635 0.245437 0.245437 0.294524 0.294524 0.343612 0.343612 0.392699 0.392699 0.441786 0.441786 0.490874 0.490874 0.539961 0.539961 0.589049 0.589049 0.638136 0.638136 0.687223 0.687223 0.736311 0.736311 0.785398 0.785398 0.834486 0.834486 0.883573 0.883573 0.93266 0.93266 0.981748 0.981748 1.03084 1.03084 1.07992 1.07992 1.12901 1.12901 1.1781 1.1781 1.22718 1.22718 1.27627 1.27627 1.32536 1.32536 1.37445 1.37445 1.42353 1.42353 1.47262 1.47262 1.52171 1.52171 1.5708 1.5708 1.61988 1.61988 1.66897 1.66897 1.71806 1.71806 1.76715 1.76715 1.81623 1.81623 1.86532 1.86532 1.91441 1.91441 1.9635 1.9635 2.01258 2.01258 2.06167 2.06167 2.11076 2.11076 2.15984 2.15984 2.20893 2.20893 2.25802 2.25802 2.30711 2.30711 2.35619 2.35619 2.40528 2.40528 2.45437 2.45437 2.50346 2.50346 2.55254 2.55254 2.60163 2.60163 2.65072 2.65072 2.69981 2.69981 2.74889 2.74889 2.79798 2.79798 2.84707 2.84707 2.89616 2.89616 2.94524 2.94524 2.99433 2.99433 3.04342 3.04342 3.09251 3.09251 3.14159 3.14159 3.19068 3.19068 3.23977 3.23977 3.28885 3.28885 3.33794 3.33794 3.38703 3.38703 3.43612 3.43612 3.4852 3.4852 3.53429 3.53429 3.58338 3.58338 3.63247 3.63247 3.68155 3.68155 3.73064 3.73064 3.77973 3.77973 3.82882 3.82882 3.8779 3.8779 3.92699 3.92699 3.97608 3.97608 4.02517 4.02517 4.07425 4.07425 4.12334 4.12334 4.17243 4.17243 4.22152 4.22152 4.2706 4.2706 4.31969 4.31969 4.36878 4.36878 4.41786 4.41786 4.46695 4.46695 4.51604 4.51604 4.56513 4.56513 4.61421 4.61421 4.6633 4.6633 4.71239 4.71239 4.76148 4.76148 4.81056 4.81056 4.85965 4.85965 4.90874 4.90874 4.95783 4.95783 5.00691 5.00691 5.056 5.056 5.10509 5.10509 5.15418 5.15418 5.20326 5.20326 5.25235 5.25235 5.30144 5.30144 5.35052 5.35052 5.39961 5.39961 5.4487 5.4487 5.49779 5.49779 5.54687 5.54687 5.59596 5.59596 5.64505 5.64505 5.69414 5.69414 5.74322 5.74322 5.79231 5.79231 5.8414 5.8414 5.89049 5.89049 5.93957 5.93957 5.98866 5.98866 6.03775 6.03775 6.08684 6.08684 6.13592 6.13592 6.18501 6.18501 6.2341 6.2341 6.28319 6.28319 6.33227 6.33227 6.38136 6.38136 6.43045 6.43045 6.47953 6.47953 6.52862 6.52862 6.57771 6.57771 6.6268 6.6268 6.67588 6.67588 6.72497 6.72497 6.77406 6.77406 6.82315 6.82315 6.87223 6.87223 6.92132 6.92132 6.97041 6.97041 7.0195 7.0195 7.06858 7.06858 7.11767 7.11767 7.16676 7.16676 7.21585 7.21585 7.26493 7.26493 7.31402 7.31402 7.36311 7.36311 7.4122 7.4122 7.46128 7.46128 7.51037 7.51037 7.55946 7.55946 7.60854 7.60854 7.65763 7.65763 7.70672 7.70672 7.75581 7.75581 7.80489 7.80489 7.85398 7.85398 7.90307 7.90307 7.95216 7.95216 8.00124 8.00124 8.05033 8.05033 8.09942 8.09942 8.14851 8.14851 8.19759 8.19759 8.24668 8.24668 8.29577 8.29577 8.34486 8.34486 8.39394 8.39394 8.44303 8.44303 8.49212 8.49212 8.54121 8.54121 8.59029 8.59029 8.63938 8.63938 8.68847 8.68847 8.73755 8.73755 8.78664 8.78664 8.83573 8.83573 8.88482 8.88482 8.9339 8.9339 8.98299 8.98299 9.03208 9.03208 9.08117 9.08117 9.13025 9.13025 9.17934 9.17934 9.22843 9.22843 9.27752 9.27752 9.3266 9.3266 9.37569 9.37569 9.42478 9.42478 9.47387 9.47387 9.52295 9.52295 9.57204 9.57204 9.62113 9.62113 9.67021 9.67021 9.7193 9.7193 9.76839 9.76839 9.81748 9.81748 9.86656 9.86656 9.91565 9.91565 9.96474 9.96474 10.0138 10.0138 10.0629 10.0629 10.112 10.112 10.1611 10.1611 10.2102 10.2102 10.2593 10.2593 10.3084 10.3084 10.3574 10.3574 10.4065 10.4065 10.4556 10.4556 10.5047 10.5047 10.5538 10.5538 10.6029 10.6029 10.652 10.652 10.701 10.701 10.7501 10.7501 10.7992 10.7992 10.8483 10.8483 10.8974 10.8974 10.9465 10.9465 10.9956 10.9956 11.0447 11.0447 11.0937 11.0937 11.1428 11.1428 11.1919 11.1919 11.241 11.241 11.2901 11.2901 11.3392 11.3392 11.3883 11.3883 11.4374 11.4374 11.4864 11.4864 11.5355 11.5355 11.5846 11.5846 11.6337 11.6337 11.6828 11.6828 11.7319 11.7319 11.781 11.781 11.8301 11.8301 11.8791 11.8791 11.9282 11.9282 11.9773 11.9773 12.0264 12.0264 12.0755 12.0755 12.1246 12.1246 12.1737 12.1737 12.2228 12.2228 12.2718 12.2718 12.3209 12.3209 12.37 12.37 12.4191 12.4191 12.4682 12.4682 12.5173 12.5173 12.5664 
