# vtk DataFile Version 3.0
#This file was generated by the deal.II library on 2026/3/10 at 19:06:37
ASCII
DATASET UNSTRUCTURED_GRID

POINTS 512 double
0 0 0
0.0490874 0 0
0.0490874 0 0
0.0981748 0 0
0.0981748 0 0
0.147262 0 0
0.147262 0 0
0.19635 0 0
0.19635 0 0
0.245437 0 0
0.245437 0 0
0.294524 0 0
0.294524 0 0
0.343612 0 0
0.343612 0 0
0.392699 0 0
0.392699 0 0
0.441786 0 0
0.441786 0 0
0.490874 0 0
0.490874 0 0
0.539961 0 0
0.539961 0 0
0.589049 0 0
0.589049 0 0
0.638136 0 0
0.638136 0 0
0.687223 0 0
0.687223 0 0
0.736311 0 0
0.736311 0 0
0.785398 0 0
0.785398 0 0
0.834486 0 0
0.834486 0 0
0.883573 0 0
0.883573 0 0
0.93266 0 0
0.93266 0 0
0.981748 0 0
0.981748 0 0
1.03084 0 0
1.03084 0 0
1.07992 0 0
1.07992 0 0
1.12901 0 0
1.12901 0 0
1.1781 0 0
1.1781 0 0
1.22718 0 0
1.22718 0 0
1.27627 0 0
1.27627 0 0
1.32536 0 0
1.32536 0 0
1.37445 0 0
1.37445 0 0
1.42353 0 0
1.42353 0 0
1.47262 0 0
1.47262 0 0
1.52171 0 0
1.52171 0 0
1.5708 0 0
1.5708 0 0
1.61988 0 0
1.61988 0 0
1.66897 0 0
1.66897 0 0
1.71806 0 0
1.71806 0 0
1.76715 0 0
1.76715 0 0
1.81623 0 0
1.81623 0 0
1.86532 0 0
1.86532 0 0
1.91441 0 0
1.91441 0 0
1.9635 0 0
1.9635 0 0
2.01258 0 0
2.01258 0 0
2.06167 0 0
2.06167 0 0
2.11076 0 0
2.11076 0 0
2.15984 0 0
2.15984 0 0
2.20893 0 0
2.20893 0 0
2.25802 0 0
2.25802 0 0
2.30711 0 0
2.30711 0 0
2.35619 0 0
2.35619 0 0
2.40528 0 0
2.40528 0 0
2.45437 0 0
2.45437 0 0
2.50346 0 0
2.50346 0 0
2.55254 0 0
2.55254 0 0
2.60163 0 0
2.60163 0 0
2.65072 0 0
2.65072 0 0
2.69981 0 0
2.69981 0 0
2.74889 0 0
2.74889 0 0
2.79798 0 0
2.79798 0 0
2.84707 0 0
2.84707 0 0
2.89616 0 0
2.89616 0 0
2.94524 0 0
2.94524 0 0
2.99433 0 0
2.99433 0 0
3.04342 0 0
3.04342 0 0
3.09251 0 0
3.09251 0 0
3.14159 0 0
3.14159 0 0
3.19068 0 0
3.19068 0 0
3.23977 0 0
3.23977 0 0
3.28885 0 0
3.28885 0 0
3.33794 0 0
3.33794 0 0
3.38703 0 0
3.38703 0 0
3.43612 0 0
3.43612 0 0
3.4852 0 0
3.4852 0 0
3.53429 0 0
3.53429 0 0
3.58338 0 0
3.58338 0 0
3.63247 0 0
3.63247 0 0
3.68155 0 0
3.68155 0 0
3.73064 0 0
3.73064 0 0
3.77973 0 0
3.77973 0 0
3.82882 0 0
3.82882 0 0
3.8779 0 0
3.8779 0 0
3.92699 0 0
3.92699 0 0
3.97608 0 0
3.97608 0 0
4.02517 0 0
4.02517 0 0
4.07425 0 0
4.07425 0 0
4.12334 0 0
4.12334 0 0
4.17243 0 0
4.17243 0 0
4.22152 0 0
4.22152 0 0
4.2706 0 0
4.2706 0 0
4.31969 0 0
4.31969 0 0
4.36878 0 0
4.36878 0 0
4.41786 0 0
4.41786 0 0
4.46695 0 0
4.46695 0 0
4.51604 0 0
4.51604 0 0
4.56513 0 0
4.56513 0 0
4.61421 0 0
4.61421 0 0
4.6633 0 0
4.6633 0 0
4.71239 0 0
4.71239 0 0
4.76148 0 0
4.76148 0 0
4.81056 0 0
4.81056 0 0
4.85965 0 0
4.85965 0 0
4.90874 0 0
4.90874 0 0
4.95783 0 0
4.95783 0 0
5.00691 0 0
5.00691 0 0
5.056 0 0
5.056 0 0
5.10509 0 0
5.10509 0 0
5.15418 0 0
5.15418 0 0
5.20326 0 0
5.20326 0 0
5.25235 0 0
5.25235 0 0
5.30144 0 0
5.30144 0 0
5.35052 0 0
5.35052 0 0
5.39961 0 0
5.39961 0 0
5.4487 0 0
5.4487 0 0
5.49779 0 0
5.49779 0 0
5.54687 0 0
5.54687 0 0
5.59596 0 0
5.59596 0 0
5.64505 0 0
5.64505 0 0
5.69414 0 0
5.69414 0 0
5.74322 0 0
5.74322 0 0
5.79231 0 0
5.79231 0 0
5.8414 0 0
5.8414 0 0
5.89049 0 0
5.89049 0 0
5.93957 0 0
5.93957 0 0
5.98866 0 0
5.98866 0 0
6.03775 0 0
6.03775 0 0
6.08684 0 0
6.08684 0 0
6.13592 0 0
6.13592 0 0
6.18501 0 0
6.18501 0 0
6.2341 0 0
6.2341 0 0
6.28319 0 0
6.28319 0 0
6.33227 0 0
6.33227 0 0
6.38136 0 0
6.38136 0 0
6.43045 0 0
6.43045 0 0
6.47953 0 0
6.47953 0 0
6.52862 0 0
6.52862 0 0
6.57771 0 0
6.57771 0 0
6.6268 0 0
6.6268 0 0
6.67588 0 0
6.67588 0 0
6.72497 0 0
6.72497 0 0
6.77406 0 0
6.77406 0 0
6.82315 0 0
6.82315 0 0
6.87223 0 0
6.87223 0 0
6.92132 0 0
6.92132 0 0
6.97041 0 0
6.97041 0 0
7.0195 0 0
7.0195 0 0
7.06858 0 0
7.06858 0 0
7.11767 0 0
7.11767 0 0
7.16676 0 0
7.16676 0 0
7.21585 0 0
7.21585 0 0
7.26493 0 0
7.26493 0 0
7.31402 0 0
7.31402 0 0
7.36311 0 0
7.36311 0 0
7.4122 0 0
7.4122 0 0
7.46128 0 0
7.46128 0 0
7.51037 0 0
7.51037 0 0
7.55946 0 0
7.55946 0 0
7.60854 0 0
7.60854 0 0
7.65763 0 0
7.65763 0 0
7.70672 0 0
7.70672 0 0
7.75581 0 0
7.75581 0 0
7.80489 0 0
7.80489 0 0
7.85398 0 0
7.85398 0 0
7.90307 0 0
7.90307 0 0
7.95216 0 0
7.95216 0 0
8.00124 0 0
8.00124 0 0
8.05033 0 0
8.05033 0 0
8.09942 0 0
8.09942 0 0
8.14851 0 0
8.14851 0 0
8.19759 0 0
8.19759 0 0
8.24668 0 0
8.24668 0 0
8.29577 0 0
8.29577 0 0
8.34486 0 0
8.34486 0 0
8.39394 0 0
8.39394 0 0
8.44303 0 0
8.44303 0 0
8.49212 0 0
8.49212 0 0
8.54121 0 0
8.54121 0 0
8.59029 0 0
8.59029 0 0
8.63938 0 0
8.63938 0 0
8.68847 0 0
8.68847 0 0
8.73755 0 0
8.73755 0 0
8.78664 0 0
8.78664 0 0
8.83573 0 0
8.83573 0 0
8.88482 0 0
8.88482 0 0
8.9339 0 0
8.9339 0 0
8.98299 0 0
8.98299 0 0
9.03208 0 0
9.03208 0 0
9.08117 0 0
9.08117 0 0
9.13025 0 0
9.13025 0 0
9.17934 0 0
9.17934 0 0
9.22843 0 0
9.22843 0 0
9.27752 0 0
9.27752 0 0
9.3266 0 0
9.3266 0 0
9.37569 0 0
9.37569 0 0
9.42478 0 0
9.42478 0 0
9.47387 0 0
9.47387 0 0
9.52295 0 0
9.52295 0 0
9.57204 0 0
9.57204 0 0
9.62113 0 0
9.62113 0 0
9.67021 0 0
9.67021 0 0
9.7193 0 0
9.7193 0 0
9.76839 0 0
9.76839 0 0
9.81748 0 0
9.81748 0 0
9.86656 0 0
9.86656 0 0
9.91565 0 0
9.91565 0 0
9.96474 0 0
9.96474 0 0
10.0138 0 0
10.0138 0 0
10.0629 0 0
10.0629 0 0
10.112 0 0
10.112 0 0
10.1611 0 0
10.1611 0 0
10.2102 0 0
10.2102 0 0
10.2593 0 0
10.2593 0 0
10.3084 0 0
10.3084 0 0
10.3574 0 0
10.3574 0 0
10.4065 0 0
10.4065 0 0
10.4556 0 0
10.4556 0 0
10.5047 0 0
10.5047 0 0
10.5538 0 0
10.5538 0 0
10.6029 0 0
10.6029 0 0
10.652 0 0
10.652 0 0
10.701 0 0
10.701 0 0
10.7501 0 0
10.7501 0 0
10.7992 0 0
10.7992 0 0
10.8483 0 0
10.8483 0 0
10.8974 0 0
10.8974 0 0
10.9465 0 0
10.9465 0 0
10.9956 0 0
10.9956 0 0
11.0447 0 0
11.0447 0 0
11.0937 0 0
11.0937 0 0
11.1428 0 0
11.1428 0 0
11.1919 0 0
11.1919 0 0
11.241 0 0
11.241 0 0
11.2901 0 0
11.2901 0 0
11.3392 0 0
11.3392 0 0
11.3883 0 0
11.3883 0 0
11.4374 0 0
11.4374 0 0
11.4864 0 0
11.4864 0 0
11.5355 0 0
11.5355 0 0
11.5846 0 0
11.5846 0 0
11.6337 0 0
11.6337 0 0
11.6828 0 0
11.6828 0 0
11.7319 0 0
11.7319 0 0
11.781 0 0
11.781 0 0
11.8301 0 0
11.8301 0 0
11.8791 0 0
11.8791 0 0
11.9282 0 0
11.9282 0 0
11.9773 0 0
11.9773 0 0
12.0264 0 0
12.0264 0 0
12.0755 0 0
12.0755 0 0
12.1246 0 0
12.1246 0 0
12.1737 0 0
12.1737 0 0
12.2228 0 0
12.2228 0 0
12.2718 0 0
12.2718 0 0
12.3209 0 0
12.3209 0 0
12.37 0 0
12.37 0 0
12.4191 0 0
12.4191 0 0
12.4682 0 0
12.4682 0 0
12.5173 0 0
12.5173 0 0
12.5664 0 0

CELLS 256 768
2	0	1
2	2	3
2	4	5
2	6	7
2	8	9
2	10	11
2	12	13
2	14	15
2	16	17
2	18	19
2	20	21
2	22	23
2	24	25
2	26	27
2	28	29
2	30	31
2	32	33
2	34	35
2	36	37
2	38	39
2	40	41
2	42	43
2	44	45
2	46	47
2	48	49
2	50	51
2	52	53
2	54	55
2	56	57
2	58	59
2	60	61
2	62	63
2	64	65
2	66	67
2	68	69
2	70	71
2	72	73
2	74	75
2	76	77
2	78	79
2	80	81
2	82	83
2	84	85
2	86	87
2	88	89
2	90	91
2	92	93
2	94	95
2	96	97
2	98	99
2	100	101
2	102	103
2	104	105
2	106	107
2	108	109
2	110	111
2	112	113
2	114	115
2	116	117
2	118	119
2	120	121
2	122	123
2	124	125
2	126	127
2	128	129
2	130	131
2	132	133
2	134	135
2	136	137
2	138	139
2	140	141
2	142	143
2	144	145
2	146	147
2	148	149
2	150	151
2	152	153
2	154	155
2	156	157
2	158	159
2	160	161
2	162	163
2	164	165
2	166	167
2	168	169
2	170	171
2	172	173
2	174	175
2	176	177
2	178	179
2	180	181
2	182	183
2	184	185
2	186	187
2	188	189
2	190	191
2	192	193
2	194	195
2	196	197
2	198	199
2	200	201
2	202	203
2	204	205
2	206	207
2	208	209
2	210	211
2	212	213
2	214	215
2	216	217
2	218	219
2	220	221
2	222	223
2	224	225
2	226	227
2	228	229
2	230	231
2	232	233
2	234	235
2	236	237
2	238	239
2	240	241
2	242	243
2	244	245
2	246	247
2	248	249
2	250	251
2	252	253
2	254	255
2	256	257
2	258	259
2	260	261
2	262	263
2	264	265
2	266	267
2	268	269
2	270	271
2	272	273
2	274	275
2	276	277
2	278	279
2	280	281
2	282	283
2	284	285
2	286	287
2	288	289
2	290	291
2	292	293
2	294	295
2	296	297
2	298	299
2	300	301
2	302	303
2	304	305
2	306	307
2	308	309
2	310	311
2	312	313
2	314	315
2	316	317
2	318	319
2	320	321
2	322	323
2	324	325
2	326	327
2	328	329
2	330	331
2	332	333
2	334	335
2	336	337
2	338	339
2	340	341
2	342	343
2	344	345
2	346	347
2	348	349
2	350	351
2	352	353
2	354	355
2	356	357
2	358	359
2	360	361
2	362	363
2	364	365
2	366	367
2	368	369
2	370	371
2	372	373
2	374	375
2	376	377
2	378	379
2	380	381
2	382	383
2	384	385
2	386	387
2	388	389
2	390	391
2	392	393
2	394	395
2	396	397
2	398	399
2	400	401
2	402	403
2	404	405
2	406	407
2	408	409
2	410	411
2	412	413
2	414	415
2	416	417
2	418	419
2	420	421
2	422	423
2	424	425
2	426	427
2	428	429
2	430	431
2	432	433
2	434	435
2	436	437
2	438	439
2	440	441
2	442	443
2	444	445
2	446	447
2	448	449
2	450	451
2	452	453
2	454	455
2	456	457
2	458	459
2	460	461
2	462	463
2	464	465
2	466	467
2	468	469
2	470	471
2	472	473
2	474	475
2	476	477
2	478	479
2	480	481
2	482	483
2	484	485
2	486	487
2	488	489
2	490	491
2	492	493
2	494	495
2	496	497
2	498	499
2	500	501
2	502	503
2	504	505
2	506	507
2	508	509
2	510	511

CELL_TYPES 256
 3 3 3 3 3 3 3 3 3 3 3 3 3 3 3 3 3 3 3 3 3 3 3 3 3 3 3 3 3 3 3 3 3 3 3 3 3 3 3 3 3 3 3 3 3 3 3 3 3 3 3 3 3 3 3 3 3 3 3 3 3 3 3 3 3 3 3 3 3 3 3 3 3 3 3 3 3 3 3 3 3 3 3 3 3 3 3 3 3 3 3 3 3 3 3 3 3 3 3 3 3 3 3 3 3 3 3 3 3 3 3 3 3 3 3 3 3 3 3 3 3 3 3 3 3 3 3 3 3 3 3 3 3 3 3 3 3 3 3 3 3 3 3 3 3 3 3 3 3 3 3 3 3 3 3 3 3 3 3 3 3 3 3 3 3 3 3 3 3 3 3 3 3 3 3 3 3 3 3 3 3 3 3 3 3 3 3 3 3 3 3 3 3 3 3 3 3 3 3 3 3 3 3 3 3 3 3 3 3 3 3 3 3 3 3 3 3 3 3 3 3 3 3 3 3 3 3 3 3 3 3 3 3 3 3 3 3 3 3 3 3 3 3 3 3 3 3 3 3 3 3 3 3 3 3 3
POINT_DATA 512
VECTORS electric_field double
-11.9534 0 0
-11.9043 0 0
-11.9043 0 0
-11.8552 0 0
-11.8552 0 0
-11.8062 0 0
-11.8062 0 0
-11.7571 0 0
-11.7571 0 0
-11.708 0 0
-11.708 0 0
-11.6589 0 0
-11.6589 0 0
-11.6098 0 0
-11.6098 0 0
-11.5607 0 0
-11.5607 0 0
-11.5116 0 0
-11.5116 0 0
-11.4625 0 0
-11.4625 0 0
-11.4135 0 0
-11.4135 0 0
-11.3644 0 0
-11.3644 0 0
-11.3153 0 0
-11.3153 0 0
-11.2662 0 0
-11.2662 0 0
-11.2171 0 0
-11.2171 0 0
-11.168 0 0
-11.168 0 0
-11.1189 0 0
-11.1189 0 0
-11.0698 0 0
-11.0698 0 0
-11.0208 0 0
-11.0208 0 0
-10.9717 0 0
-10.9717 0 0
-10.9226 0 0
-10.9226 0 0
-10.8735 0 0
-10.8735 0 0
-10.8244 0 0
-10.8244 0 0
-10.7753 0 0
-10.7753 0 0
-10.7262 0 0
-10.7262 0 0
-10.6771 0 0
-10.6771 0 0
-10.6281 0 0
-10.6281 0 0
-10.579 0 0
-10.579 0 0
-10.5299 0 0
-10.5299 0 0
-10.4808 0 0
-10.4808 0 0
-10.4317 0 0
-10.4317 0 0
-10.3826 0 0
-10.3826 0 0
-10.3335 0 0
-10.3335 0 0
-10.2844 0 0
-10.2844 0 0
-10.2354 0 0
-10.2354 0 0
-10.1863 0 0
-10.1863 0 0
-10.1372 0 0
-10.1372 0 0
-10.0881 0 0
-10.0881 0 0
-10.039 0 0
-10.039 0 0
-9.98992 0 0
-9.98992 0 0
-9.94083 0 0
-9.94083 0 0
-9.89175 0 0
-9.89175 0 0
-9.84266 0 0
-9.84266 0 0
-9.79357 0 0
-9.79357 0 0
-9.74448 0 0
-9.74448 0 0
-9.6954 0 0
-9.6954 0 0
-9.64631 0 0
-9.64631 0 0
-9.59722 0 0
-9.59722 0 0
-9.54813 0 0
-9.54813 0 0
-9.49905 0 0
-9.49905 0 0
-9.44996 0 0
-9.44996 0 0
-9.40087 0 0
-9.40087 0 0
-9.35179 0 0
-9.35179 0 0
-9.3027 0 0
-9.3027 0 0
-9.25361 0 0
-9.25361 0 0
-9.20452 0 0
-9.20452 0 0
-9.15544 0 0
-9.15544 0 0
-9.10635 0 0
-9.10635 0 0
-9.05726 0 0
-9.05726 0 0
-9.00817 0 0
-9.00817 0 0
-8.95909 0 0
-8.95909 0 0
-8.91 0 0
-8.91 0 0
-8.86091 0 0
-8.86091 0 0
-8.81182 0 0
-8.81182 0 0
-8.76274 0 0
-8.76274 0 0
-8.71365 0 0
-8.71365 0 0
-8.66456 0 0
-8.66456 0 0
-8.61547 0 0
-8.61547 0 0
-8.56639 0 0
-8.56639 0 0
-8.5173 0 0
-8.5173 0 0
-8.46821 0 0
-8.46821 0 0
-8.41913 0 0
-8.41913 0 0
-8.37004 0 0
-8.37004 0 0
-8.32095 0 0
-8.32095 0 0
-8.27186 0 0
-8.27186 0 0
-8.22278 0 0
-8.22278 0 0
-8.17369 0 0
-8.17369 0 0
-8.1246 0 0
-8.1246 0 0
-8.07551 0 0
-8.07551 0 0
-8.02643 0 0
-8.02643 0 0
-7.97734 0 0
-7.97734 0 0
-7.92825 0 0
-7.92825 0 0
-7.87916 0 0
-7.87916 0 0
-7.83008 0 0
-7.83008 0 0
-7.78099 0 0
-7.78099 0 0
-7.7319 0 0
-7.7319 0 0
-7.68281 0 0
-7.68281 0 0
-7.63373 0 0
-7.63373 0 0
-7.58464 0 0
-7.58464 0 0
-7.53555 0 0
-7.53555 0 0
-7.48646 0 0
-7.48646 0 0
-7.43738 0 0
-7.43738 0 0
-7.38829 0 0
-7.38829 0 0
-7.3392 0 0
-7.3392 0 0
-7.29012 0 0
-7.29012 0 0
-7.24103 0 0
-7.24103 0 0
-7.19194 0 0
-7.19194 0 0
-7.14285 0 0
-7.14285 0 0
-7.09377 0 0
-7.09377 0 0
-7.04468 0 0
-7.04468 0 0
-6.99559 0 0
-6.99559 0 0
-6.9465 0 0
-6.9465 0 0
-6.89742 0 0
-6.89742 0 0
-6.84833 0 0
-6.84833 0 0
-6.79924 0 0
-6.79924 0 0
-6.75015 0 0
-6.75015 0 0
-6.70107 0 0
-6.70107 0 0
-6.65198 0 0
-6.65198 0 0
-6.60289 0 0
-6.60289 0 0
-6.5538 0 0
-6.5538 0 0
-6.50472 0 0
-6.50472 0 0
-6.45563 0 0
-6.45563 0 0
-6.40654 0 0
-6.40654 0 0
-6.35745 0 0
-6.35745 0 0
-6.30837 0 0
-6.30837 0 0
-6.25928 0 0
-6.25928 0 0
-6.21019 0 0
-6.21019 0 0
-6.16111 0 0
-6.16111 0 0
-6.11202 0 0
-6.11202 0 0
-6.06293 0 0
-6.06293 0 0
-6.01384 0 0
-6.01384 0 0
-5.96476 0 0
-5.96476 0 0
-5.91567 0 0
-5.91567 0 0
-5.86658 0 0
-5.86658 0 0
-5.81749 0 0
-5.81749 0 0
-5.76841 0 0
-5.76841 0 0
-5.71932 0 0
-5.71932 0 0
-5.67023 0 0
-5.67023 0 0
-5.62114 0 0
-5.62114 0 0
-5.57206 0 0
-5.57206 0 0
-5.52297 0 0
-5.52297 0 0
-5.47388 0 0
-5.47388 0 0
-5.42479 0 0
-5.42479 0 0
-5.37571 0 0
-5.37571 0 0
-5.32662 0 0
-5.32662 0 0
-5.27753 0 0
-5.27753 0 0
-5.22845 0 0
-5.22845 0 0
-5.17936 0 0
-5.17936 0 0
-5.13027 0 0
-5.13027 0 0
-5.08118 0 0
-5.08118 0 0
-5.0321 0 0
-5.0321 0 0
-4.98301 0 0
-4.98301 0 0
-4.93392 0 0
-4.93392 0 0
-4.88483 0 0
-4.88483 0 0
-4.83575 0 0
-4.83575 0 0
-4.78666 0 0
-4.78666 0 0
-4.73757 0 0
-4.73757 0 0
-4.68848 0 0
-4.68848 0 0
-4.6394 0 0
-4.6394 0 0
-4.59031 0 0
-4.59031 0 0
-4.54122 0 0
-4.54122 0 0
-4.49213 0 0
-4.49213 0 0
-4.44305 0 0
-4.44305 0 0
-4.39396 0 0
-4.39396 0 0
-4.34487 0 0
-4.34487 0 0
-4.29578 0 0
-4.29578 0 0
-4.2467 0 0
-4.2467 0 0
-4.19761 0 0
-4.19761 0 0
-4.14852 0 0
-4.14852 0 0
-4.09944 0 0
-4.09944 0 0
-4.05035 0 0
-4.05035 0 0
-4.00126 0 0
-4.00126 0 0
-3.95217 0 0
-3.95217 0 0
-3.90309 0 0
-3.90309 0 0
-3.854 0 0
-3.854 0 0
-3.80491 0 0
-3.80491 0 0
-3.75582 0 0
-3.75582 0 0
-3.70674 0 0
-3.70674 0 0
-3.65765 0 0
-3.65765 0 0
-3.60856 0 0
-3.60856 0 0
-3.55947 0 0
-3.55947 0 0
-3.51039 0 0
-3.51039 0 0
-3.4613 0 0
-3.4613 0 0
-3.41221 0 0
-3.41221 0 0
-3.36312 0 0
-3.36312 0 0
-3.31404 0 0
-3.31404 0 0
-3.26495 0 0
-3.26495 0 0
-3.21586 0 0
-3.21586 0 0
-3.16677 0 0
-3.16677 0 0
-3.11769 0 0
-3.11769 0 0
-3.0686 0 0
-3.0686 0 0
-3.01951 0 0
-3.01951 0 0
-2.97043 0 0
-2.97043 0 0
-2.92134 0 0
-2.92134 0 0
-2.87225 0 0
-2.87225 0 0
-2.82316 0 0
-2.82316 0 0
-2.77408 0 0
-2.77408 0 0
-2.72499 0 0
-2.72499 0 0
-2.6759 0 0
-2.6759 0 0
-2.62681 0 0
-2.62681 0 0
-2.57773 0 0
-2.57773 0 0
-2.52864 0 0
-2.52864 0 0
-2.47955 0 0
-2.47955 0 0
-2.43046 0 0
-2.43046 0 0
-2.38138 0 0
-2.38138 0 0
-2.33229 0 0
-2.33229 0 0
-2.28321 0 0
-2.28321 0 0
-2.23412 0 0
-2.23411 0 0
-2.18505 0 0
-2.18505 0 0
-2.13598 0 0
-2.13598 0 0
-2.08689 0 0
-2.08689 0 0
-2.03781 0 0
-2.03781 0 0
-1.98872 0 0
-1.98872 0 0
-1.93966 0 0
-1.93965 0 0
-1.89056 0 0
-1.89057 0 0
-1.84176 0 0
-1.84168 0 0
-1.7926 0 0
-1.7926 0 0
-1.74351 0 0
-1.74351 0 0
-1.69442 0 0
-1.69442 0 0
-1.64533 0 0
-1.64533 0 0
-1.59625 0 0
-1.59609 0 0
-1.54757 0 0
-1.54758 0 0
-1.49849 0 0
-1.49842 0 0
-1.4496 0 0
-1.44961 0 0
-1.40052 0 0
-1.40052 0 0
-1.35143 0 0
-1.35143 0 0
-1.30235 0 0
-1.30235 0 0
-1.25326 0 0
-1.25326 0 0
-1.20418 0 0
-1.20415 0 0
-1.15517 0 0
-1.15512 0 0
-1.10623 0 0
-1.10619 0 0
-1.05751 0 0
-1.05748 0 0
-1.00845 0 0
-1.00845 0 0
-0.959441 0 0
-0.959514 0 0
-0.911224 0 0
-0.911209 0 0
-0.862784 0 0
-0.862729 0 0
-0.816322 0 0
-0.816387 0 0
-0.770795 0 0
-0.770881 0 0
-0.729635 0 0
-0.729628 0 0
-0.69018 0 0
-0.690232 0 0
-0.652157 0 0
-0.652277 0 0
-0.617278 0 0
-0.617244 0 0
-0.583953 0 0
-0.583789 0 0
-0.551871 0 0
-0.551895 0 0
-0.522763 0 0
-0.522727 0 0
-0.496389 0 0
-0.496325 0 0
-0.470271 0 0
-0.470357 0 0
-0.445562 0 0
-0.445349 0 0
-0.421675 0 0
-0.42178 0 0
-0.398511 0 0
-0.398489 0 0
-0.375768 0 0
-0.375826 0 0
-0.352859 0 0
-0.352885 0 0
-0.330464 0 0
-0.330532 0 0
-0.308763 0 0
-0.308769 0 0
-0.287344 0 0
-0.287364 0 0
-0.266178 0 0
-0.266152 0 0
-0.244454 0 0
-0.244255 0 0
-0.223516 0 0
-0.223832 0 0
-0.202718 0 0
-0.202577 0 0
-0.181351 0 0
-0.181389 0 0
-0.160515 0 0
-0.160463 0 0
-0.139216 0 0
-0.139281 0 0
-0.118865 0 0
-0.119045 0 0
-0.0982445 0 0
-0.0981748 0 0
-0.0490874 0 0
-0.0490874 0 0
-3.63798e-12 0 0
SCALARS potential double 1
LOOKUP_TABLE default
0 0.585557 0.585557 1.1687 1.1687 1.74944 1.74944 2.32777 2.32777 2.90369 2.90369 3.4772 3.4772 4.0483 4.0483 4.61699 4.61699 5.18327 5.18327 5.74714 5.74714 6.3086 6.3086 6.86765 6.86765 7.4243 7.4243 7.97853 7.97853 8.53035 8.53035 9.07977 9.07977 9.62677 9.62677 10.1714 10.1714 10.7135 10.7135 11.2533 11.2533 11.7907 11.7907 12.3256 12.3256 12.8582 12.8582 13.3883 13.3883 13.9161 13.9161 14.4414 14.4414 14.9643 14.9643 15.4848 15.4848 16.0029 16.0029 16.5186 16.5186 17.0318 17.0318 17.5427 17.5427 18.0511 18.0511 18.5572 18.5572 19.0608 19.0608 19.562 19.562 20.0608 20.0608 20.5572 20.5572 21.0512 21.0512 21.5428 21.5428 22.032 22.032 22.5188 22.5188 23.0031 23.0031 23.4851 23.4851 23.9646 23.9646 24.4417 24.4417 24.9164 24.9164 25.3887 25.3887 25.8586 25.8586 26.3261 26.3261 26.7912 26.7912 27.2539 27.2539 27.7141 27.7141 28.172 28.172 28.6274 28.6274 29.0805 29.0805 29.5311 29.5311 29.9793 29.9793 30.4251 30.4251 30.8685 30.8685 31.3095 31.3095 31.748 31.748 32.1842 32.1842 32.618 32.618 33.0493 33.0493 33.4782 33.4782 33.9048 33.9048 34.3289 34.3289 34.7506 34.7506 35.1699 35.1699 35.5868 35.5868 36.0013 36.0013 36.4133 36.4133 36.823 36.823 37.2302 37.2302 37.6351 37.6351 38.0375 38.0375 38.4375 38.4375 38.8351 38.8351 39.2303 39.2303 39.6231 39.6231 40.0135 40.0135 40.4015 40.4015 40.787 40.787 41.1702 41.1702 41.5509 41.5509 41.9293 41.9293 42.3052 42.3052 42.6787 42.6787 43.0498 43.0498 43.4185 43.4185 43.7848 43.7848 44.1487 44.1487 44.5101 44.5101 44.8692 44.8692 45.2258 45.2258 45.5801 45.5801 45.9319 45.9319 46.2813 46.2813 46.6283 46.6283 46.9729 46.9729 47.3151 47.3151 47.6549 47.6549 47.9923 47.9923 48.3272 48.3272 48.6598 48.6598 48.9899 48.9899 49.3177 49.3177 49.643 49.643 49.9659 49.9659 50.2864 50.2864 50.6045 50.6045 50.9202 50.9202 51.2335 51.2335 51.5443 51.5443 51.8528 51.8528 52.1588 52.1588 52.4625 52.4625 52.7637 52.7637 53.0625 53.0625 53.3589 53.3589 53.6529 53.6529 53.9445 53.9445 54.2337 54.2337 54.5205 54.5205 54.8048 54.8048 55.0868 55.0868 55.3663 55.3663 55.6435 55.6435 55.9182 55.9182 56.1905 56.1905 56.4604 56.4604 56.7279 56.7279 56.993 56.993 57.2556 57.2556 57.5159 57.5159 57.7738 57.7738 58.0292 58.0292 58.2822 58.2822 58.5329 58.5329 58.7811 58.7811 59.0269 59.0269 59.2703 59.2703 59.5113 59.5113 59.7499 59.7499 59.986 59.986 60.2198 60.2198 60.4511 60.4511 60.6801 60.6801 60.9066 60.9066 61.1307 61.1307 61.3525 61.3525 61.5718 61.5718 61.7886 61.7886 62.0031 62.0031 62.2152 62.2152 62.4249 62.4249 62.6321 62.6321 62.837 62.837 63.0394 63.0394 63.2394 63.2394 63.437 63.437 63.6323 63.6323 63.8251 63.8251 64.0154 64.0154 64.2034 64.2034 64.389 64.389 64.5721 64.5721 64.7529 64.7529 64.9312 64.9312 65.1072 65.1072 65.2807 65.2807 65.4518 65.4518 65.6205 65.6205 65.7868 65.7868 65.9507 65.9507 66.1121 66.1121 66.2712 66.2712 66.4279 66.4279 66.5821 66.5821 66.7339 66.7339 66.8834 66.8834 67.0304 67.0304 67.175 67.175 67.3172 67.3172 67.457 67.457 67.5943 67.5943 67.7293 67.7293 67.8619 67.8619 67.992 67.992 68.1198 68.1198 68.2451 68.2451 68.368 68.368 68.4885 68.4885 68.6066 68.6066 68.7223 68.7223 68.8356 68.8356 68.9465 68.9465 69.0549 69.0549 69.161 69.161 69.2646 69.2646 69.3659 69.3659 69.4647 69.4647 69.5611 69.5611 69.6551 69.6551 69.7467 69.7467 69.8359 69.8359 69.9227 69.9227 70.0071 70.0071 70.089 70.089 70.1686 70.1686 70.2458 70.2458 70.3205 70.3205 70.3929 70.3929 70.4628 70.4628 70.5304 70.5304 70.5955 70.5955 70.6582 70.6582 70.7186 70.7186 70.7765 70.7765 70.832 70.832 70.8851 70.8851 70.9358 70.9358 70.9841 70.9841 71.03 71.03 71.0735 71.0735 71.1147 71.1147 71.1537 71.1537 71.1905 71.1905 71.2253 71.2253 71.2583 71.2583 71.2894 71.2894 71.3189 71.3189 71.3467 71.3467 71.3731 71.3731 71.3981 71.3981 71.4218 71.4218 71.4443 71.4443 71.4656 71.4656 71.4857 71.4857 71.5047 71.5047 71.5226 71.5226 71.5394 71.5394 71.5551 71.5551 71.5697 71.5697 71.5833 71.5833 71.5958 71.5958 71.6073 71.6073 71.6178 71.6178 71.6272 71.6272 71.6356 71.6356 71.6429 71.6429 71.6493 71.6493 71.6546 71.6546 71.6582 71.6582 71.6594 
SCALARS x_coordinate double 1
LOOKUP_TABLE default
0 0.0490874 0.0490874 0.0981748 0.0981748 0.147262 0.147262 0.19635 0.19635 0.245437 0.245437 0.294524 0.294524 0.343612 0.343612 0.392699 0.392699 0.441786 0.441786 0.490874 0.490874 0.539961 0.539961 0.589049 0.589049 0.638136 0.638136 0.687223 0.687223 0.736311 0.736311 0.785398 0.785398 0.834486 0.834486 0.883573 0.883573 0.93266 0.93266 0.981748 0.981748 1.03084 1.03084 1.07992 1.07992 1.12901 1.12901 1.1781 1.1781 1.22718 1.22718 1.27627 1.27627 1.32536 1.32536 1.37445 1.37445 1.42353 1.42353 1.47262 1.47262 1.52171 1.52171 1.5708 1.5708 1.61988 1.61988 1.66897 1.66897 1.71806 1.71806 1.76715 1.76715 1.81623 1.81623 1.86532 1.86532 1.91441 1.91441 1.9635 1.9635 2.01258 2.01258 2.06167 2.06167 2.11076 2.11076 2.15984 2.15984 2.20893 2.20893 2.25802 2.25802 2.30711 2.30711 2.35619 2.35619 2.40528 2.40528 2.45437 2.45437 2.50346 2.50346 2.55254 2.55254 2.60163 2.60163 2.65072 2.65072 2.69981 2.69981 2.74889 2.74889 2.79798 2.79798 2.84707 2.84707 2.89616 2.89616 2.94524 2.94524 2.99433 2.99433 3.04342 3.04342 3.09251 3.09251 3.14159 3.14159 3.19068 3.19068 3.23977 3.23977 3.28885 3.28885 3.33794 3.33794 3.38703 3.38703 3.43612 3.43612 3.4852 3.4852 3.53429 3.53429 3.58338 3.58338 3.63247 3.63247 3.68155 3.68155 3.73064 3.73064 3.77973 3.77973 3.82882 3.82882 3.8779 3.8779 3.92699 3.92699 3.97608 3.97608 4.02517 4.02517 4.07425 4.07425 4.12334 4.12334 4.17243 4.17243 4.22152 4.22152 4.2706 4.2706 4.31969 4.31969 4.36878 4.36878 4.41786 4.41786 4.46695 4.46695 4.51604 4.51604 4.56513 4.56513 4.61421 4.61421 4.6633 4.6633 4.71239 4.71239 4.76148 4.76148 4.81056 4.81056 4.85965 4.85965 4.90874 4.90874 4.95783 4.95783 5.00691 5.00691 5.056 5.056 5.10509 5.10509 5.15418 5.15418 5.20326 5.20326 5.25235 5.25235 5.30144 5.30144 5.35052 5.35052 5.39961 5.39961 5.4487 5.4487 5.49779 5.49779 5.54687 5.54687 5.59596 5.59596 5.64505 5.64505 5.69414 5.69414 5.74322 5.74322 5.79231 5.79231 5.8414 5.8414 5.89049 5.89049 5.93957 5.93957 5.98866 5.98866 6.03775 6.03775 6.08684 6.08684 6.13592 6.13592 6.18501 6.18501 6.2341 6.2341 6.28319 6.28319 6.33227 6.33227 6.38136 6.38136 6.43045 6.43045 6.47953 6.47953 6.52862 6.52862 6.57771 6.57771 6.6268 6.6268 6.67588 6.67588 6.72497 6.72497 6.77406 6.77406 6.82315 6.82315 6.87223 6.87223 6.92132 6.92132 6.97041 6.97041 7.0195 7.0195 7.06858 7.06858 7.11767 7.11767 7.16676 7.16676 7.21585 7.21585 7.26493 7.26493 7.31402 7.31402 7.36311 7.36311 7.4122 7.4122 7.46128 7.46128 7.51037 7.51037 7.55946 7.55946 7.60854 7.60854 7.65763 7.65763 7.70672 7.70672 7.75581 7.75581 7.80489 7.80489 7.85398 7.85398 7.90307 7.90307 7.95216 7.95216 8.00124 8.00124 8.05033 8.05033 8.09942 8.09942 8.14851 8.14851 8.19759 8.19759 8.24668 8.24668 8.29577 8.29577 8.34486 8.34486 8.39394 8.39394 8.44303 8.44303 8.49212 8.49212 8.54121 8.54121 8.59029 8.59029 8.63938 8.63938 8.68847 8.68847 8.73755 8.73755 8.78664 8.78664 8.83573 8.83573 8.88482 8.88482 8.9339 8.9339 8.98299 8.98299 9.03208 9.03208 9.08117 9.08117 9.13025 9.13025 9.17934 9.17934 9.22843 9.22843 9.27752 9.27752 9.3266 9.3266 9.37569 9.37569 9.42478 9.42478 9.47387 9.47387 9.52295 9.52295 9.57204 9.57204 9.62113 9.62113 9.67021 9.67021 9.7193 9.7193 9.76839 9.76839 9.81748 9.81748 9.86656 9.86656 9.91565 9.91565 9.96474 9.96474 10.0138 10.0138 10.0629 10.0629 10.112 10.112 10.1611 10.1611 10.2102 10.2102 10.2593 10.2593 10.3084 10.3084 10.3574 10.3574 10.4065 10.4065 10.4556 10.4556 10.5047 10.5047 10.5538 10.5538 10.6029 10.6029 10.652 10.652 10.701 10.701 10.7501 10.7501 10.7992 10.7992 10.8483 10.8483 10.8974 10.8974 10.9465 10.9465 10.9956 10.9956 11.0447 11.0447 11.0937 11.0937 11.1428 11.1428 11.1919 11.1919 11.241 11.241 11.2901 11.2901 11.3392 11.3392 11.3883 11.3883 11.4374 11.4374 11.4864 11.4864 11.5355 11.5355 11.5846 11.5846 11.6337 11.6337 11.6828 11.6828 11.7319 11.7319 11.781 11.781 11.8301 11.8301 11.8791 11.8791 11.9282 11.9282 11.9773 11.9773 12.0264 12.0264 12.0755 12.0755 12.1246 12.1246 12.1737 12.1737 12.2228 12.2228 12.2718 12.2718 12.3209 12.3209 12.37 12.37 12.4191 12.4191 12.4682 12.4682 12.5173 12.5173 12.5664 
