# vtk DataFile Version 3.0
#This file was generated by the deal.II library on 2026/3/10 at 19:10:25
ASCII
DATASET UNSTRUCTURED_GRID

POINTS 512 double
0 0 0
0.0490874 0 0
0.0490874 0 0
0.0981748 0 0
0.0981748 0 0
0.147262 0 0
0.147262 0 0
0.19635 0 0
0.19635 0 0
0.245437 0 0
0.245437 0 0
0.294524 0 0
0.294524 0 0
0.343612 0 0
0.343612 0 0
0.392699 0 0
0.392699 0 0
0.441786 0 0
0.441786 0 0
0.490874 0 0
0.490874 0 0
0.539961 0 0
0.539961 0 0
0.589049 0 0
0.589049 0 0
0.638136 0 0
0.638136 0 0
0.687223 0 0
0.687223 0 0
0.736311 0 0
0.736311 0 0
0.785398 0 0
0.785398 0 0
0.834486 0 0
0.834486 0 0
0.883573 0 0
0.883573 0 0
0.93266 0 0
0.93266 0 0
0.981748 0 0
0.981748 0 0
1.03084 0 0
1.03084 0 0
1.07992 0 0
1.07992 0 0
1.12901 0 0
1.12901 0 0
1.1781 0 0
1.1781 0 0
1.22718 0 0
1.22718 0 0
1.27627 0 0
1.27627 0 0
1.32536 0 0
1.32536 0 0
1.37445 0 0
1.37445 0 0
1.42353 0 0
1.42353 0 0
1.47262 0 0
1.47262 0 0
1.52171 0 0
1.52171 0 0
1.5708 0 0
1.5708 0 0
1.61988 0 0
1.61988 0 0
1.66897 0 0
1.66897 0 0
1.71806 0 0
1.71806 0 0
1.76715 0 0
1.76715 0 0
1.81623 0 0
1.81623 0 0
1.86532 0 0
1.86532 0 0
1.91441 0 0
1.91441 0 0
1.9635 0 0
1.9635 0 0
2.01258 0 0
2.01258 0 0
2.06167 0 0
2.06167 0 0
2.11076 0 0
2.11076 0 0
2.15984 0 0
2.15984 0 0
2.20893 0 0
2.20893 0 0
2.25802 0 0
2.25802 0 0
2.30711 0 0
2.30711 0 0
2.35619 0 0
2.35619 0 0
2.40528 0 0
2.40528 0 0
2.45437 0 0
2.45437 0 0
2.50346 0 0
2.50346 0 0
2.55254 0 0
2.55254 0 0
2.60163 0 0
2.60163 0 0
2.65072 0 0
2.65072 0 0
2.69981 0 0
2.69981 0 0
2.74889 0 0
2.74889 0 0
2.79798 0 0
2.79798 0 0
2.84707 0 0
2.84707 0 0
2.89616 0 0
2.89616 0 0
2.94524 0 0
2.94524 0 0
2.99433 0 0
2.99433 0 0
3.04342 0 0
3.04342 0 0
3.09251 0 0
3.09251 0 0
3.14159 0 0
3.14159 0 0
3.19068 0 0
3.19068 0 0
3.23977 0 0
3.23977 0 0
3.28885 0 0
3.28885 0 0
3.33794 0 0
3.33794 0 0
3.38703 0 0
3.38703 0 0
3.43612 0 0
3.43612 0 0
3.4852 0 0
3.4852 0 0
3.53429 0 0
3.53429 0 0
3.58338 0 0
3.58338 0 0
3.63247 0 0
3.63247 0 0
3.68155 0 0
3.68155 0 0
3.73064 0 0
3.73064 0 0
3.77973 0 0
3.77973 0 0
3.82882 0 0
3.82882 0 0
3.8779 0 0
3.8779 0 0
3.92699 0 0
3.92699 0 0
3.97608 0 0
3.97608 0 0
4.02517 0 0
4.02517 0 0
4.07425 0 0
4.07425 0 0
4.12334 0 0
4.12334 0 0
4.17243 0 0
4.17243 0 0
4.22152 0 0
4.22152 0 0
4.2706 0 0
4.2706 0 0
4.31969 0 0
4.31969 0 0
4.36878 0 0
4.36878 0 0
4.41786 0 0
4.41786 0 0
4.46695 0 0
4.46695 0 0
4.51604 0 0
4.51604 0 0
4.56513 0 0
4.56513 0 0
4.61421 0 0
4.61421 0 0
4.6633 0 0
4.6633 0 0
4.71239 0 0
4.71239 0 0
4.76148 0 0
4.76148 0 0
4.81056 0 0
4.81056 0 0
4.85965 0 0
4.85965 0 0
4.90874 0 0
4.90874 0 0
4.95783 0 0
4.95783 0 0
5.00691 0 0
5.00691 0 0
5.056 0 0
5.056 0 0
5.10509 0 0
5.10509 0 0
5.15418 0 0
5.15418 0 0
5.20326 0 0
5.20326 0 0
5.25235 0 0
5.25235 0 0
5.30144 0 0
5.30144 0 0
5.35052 0 0
5.35052 0 0
5.39961 0 0
5.39961 0 0
5.4487 0 0
5.4487 0 0
5.49779 0 0
5.49779 0 0
5.54687 0 0
5.54687 0 0
5.59596 0 0
5.59596 0 0
5.64505 0 0
5.64505 0 0
5.69414 0 0
5.69414 0 0
5.74322 0 0
5.74322 0 0
5.79231 0 0
5.79231 0 0
5.8414 0 0
5.8414 0 0
5.89049 0 0
5.89049 0 0
5.93957 0 0
5.93957 0 0
5.98866 0 0
5.98866 0 0
6.03775 0 0
6.03775 0 0
6.08684 0 0
6.08684 0 0
6.13592 0 0
6.13592 0 0
6.18501 0 0
6.18501 0 0
6.2341 0 0
6.2341 0 0
6.28319 0 0
6.28319 0 0
6.33227 0 0
6.33227 0 0
6.38136 0 0
6.38136 0 0
6.43045 0 0
6.43045 0 0
6.47953 0 0
6.47953 0 0
6.52862 0 0
6.52862 0 0
6.57771 0 0
6.57771 0 0
6.6268 0 0
6.6268 0 0
6.67588 0 0
6.67588 0 0
6.72497 0 0
6.72497 0 0
6.77406 0 0
6.77406 0 0
6.82315 0 0
6.82315 0 0
6.87223 0 0
6.87223 0 0
6.92132 0 0
6.92132 0 0
6.97041 0 0
6.97041 0 0
7.0195 0 0
7.0195 0 0
7.06858 0 0
7.06858 0 0
7.11767 0 0
7.11767 0 0
7.16676 0 0
7.16676 0 0
7.21585 0 0
7.21585 0 0
7.26493 0 0
7.26493 0 0
7.31402 0 0
7.31402 0 0
7.36311 0 0
7.36311 0 0
7.4122 0 0
7.4122 0 0
7.46128 0 0
7.46128 0 0
7.51037 0 0
7.51037 0 0
7.55946 0 0
7.55946 0 0
7.60854 0 0
7.60854 0 0
7.65763 0 0
7.65763 0 0
7.70672 0 0
7.70672 0 0
7.75581 0 0
7.75581 0 0
7.80489 0 0
7.80489 0 0
7.85398 0 0
7.85398 0 0
7.90307 0 0
7.90307 0 0
7.95216 0 0
7.95216 0 0
8.00124 0 0
8.00124 0 0
8.05033 0 0
8.05033 0 0
8.09942 0 0
8.09942 0 0
8.14851 0 0
8.14851 0 0
8.19759 0 0
8.19759 0 0
8.24668 0 0
8.24668 0 0
8.29577 0 0
8.29577 0 0
8.34486 0 0
8.34486 0 0
8.39394 0 0
8.39394 0 0
8.44303 0 0
8.44303 0 0
8.49212 0 0
8.49212 0 0
8.54121 0 0
8.54121 0 0
8.59029 0 0
8.59029 0 0
8.63938 0 0
8.63938 0 0
8.68847 0 0
8.68847 0 0
8.73755 0 0
8.73755 0 0
8.78664 0 0
8.78664 0 0
8.83573 0 0
8.83573 0 0
8.88482 0 0
8.88482 0 0
8.9339 0 0
8.9339 0 0
8.98299 0 0
8.98299 0 0
9.03208 0 0
9.03208 0 0
9.08117 0 0
9.08117 0 0
9.13025 0 0
9.13025 0 0
9.17934 0 0
9.17934 0 0
9.22843 0 0
9.22843 0 0
9.27752 0 0
9.27752 0 0
9.3266 0 0
9.3266 0 0
9.37569 0 0
9.37569 0 0
9.42478 0 0
9.42478 0 0
9.47387 0 0
9.47387 0 0
9.52295 0 0
9.52295 0 0
9.57204 0 0
9.57204 0 0
9.62113 0 0
9.62113 0 0
9.67021 0 0
9.67021 0 0
9.7193 0 0
9.7193 0 0
9.76839 0 0
9.76839 0 0
9.81748 0 0
9.81748 0 0
9.86656 0 0
9.86656 0 0
9.91565 0 0
9.91565 0 0
9.96474 0 0
9.96474 0 0
10.0138 0 0
10.0138 0 0
10.0629 0 0
10.0629 0 0
10.112 0 0
10.112 0 0
10.1611 0 0
10.1611 0 0
10.2102 0 0
10.2102 0 0
10.2593 0 0
10.2593 0 0
10.3084 0 0
10.3084 0 0
10.3574 0 0
10.3574 0 0
10.4065 0 0
10.4065 0 0
10.4556 0 0
10.4556 0 0
10.5047 0 0
10.5047 0 0
10.5538 0 0
10.5538 0 0
10.6029 0 0
10.6029 0 0
10.652 0 0
10.652 0 0
10.701 0 0
10.701 0 0
10.7501 0 0
10.7501 0 0
10.7992 0 0
10.7992 0 0
10.8483 0 0
10.8483 0 0
10.8974 0 0
10.8974 0 0
10.9465 0 0
10.9465 0 0
10.9956 0 0
10.9956 0 0
11.0447 0 0
11.0447 0 0
11.0937 0 0
11.0937 0 0
11.1428 0 0
11.1428 0 0
11.1919 0 0
11.1919 0 0
11.241 0 0
11.241 0 0
11.2901 0 0
11.2901 0 0
11.3392 0 0
11.3392 0 0
11.3883 0 0
11.3883 0 0
11.4374 0 0
11.4374 0 0
11.4864 0 0
11.4864 0 0
11.5355 0 0
11.5355 0 0
11.5846 0 0
11.5846 0 0
11.6337 0 0
11.6337 0 0
11.6828 0 0
11.6828 0 0
11.7319 0 0
11.7319 0 0
11.781 0 0
11.781 0 0
11.8301 0 0
11.8301 0 0
11.8791 0 0
11.8791 0 0
11.9282 0 0
11.9282 0 0
11.9773 0 0
11.9773 0 0
12.0264 0 0
12.0264 0 0
12.0755 0 0
12.0755 0 0
12.1246 0 0
12.1246 0 0
12.1737 0 0
12.1737 0 0
12.2228 0 0
12.2228 0 0
12.2718 0 0
12.2718 0 0
12.3209 0 0
12.3209 0 0
12.37 0 0
12.37 0 0
12.4191 0 0
12.4191 0 0
12.4682 0 0
12.4682 0 0
12.5173 0 0
12.5173 0 0
12.5664 0 0

CELLS 256 768
2	0	1
2	2	3
2	4	5
2	6	7
2	8	9
2	10	11
2	12	13
2	14	15
2	16	17
2	18	19
2	20	21
2	22	23
2	24	25
2	26	27
2	28	29
2	30	31
2	32	33
2	34	35
2	36	37
2	38	39
2	40	41
2	42	43
2	44	45
2	46	47
2	48	49
2	50	51
2	52	53
2	54	55
2	56	57
2	58	59
2	60	61
2	62	63
2	64	65
2	66	67
2	68	69
2	70	71
2	72	73
2	74	75
2	76	77
2	78	79
2	80	81
2	82	83
2	84	85
2	86	87
2	88	89
2	90	91
2	92	93
2	94	95
2	96	97
2	98	99
2	100	101
2	102	103
2	104	105
2	106	107
2	108	109
2	110	111
2	112	113
2	114	115
2	116	117
2	118	119
2	120	121
2	122	123
2	124	125
2	126	127
2	128	129
2	130	131
2	132	133
2	134	135
2	136	137
2	138	139
2	140	141
2	142	143
2	144	145
2	146	147
2	148	149
2	150	151
2	152	153
2	154	155
2	156	157
2	158	159
2	160	161
2	162	163
2	164	165
2	166	167
2	168	169
2	170	171
2	172	173
2	174	175
2	176	177
2	178	179
2	180	181
2	182	183
2	184	185
2	186	187
2	188	189
2	190	191
2	192	193
2	194	195
2	196	197
2	198	199
2	200	201
2	202	203
2	204	205
2	206	207
2	208	209
2	210	211
2	212	213
2	214	215
2	216	217
2	218	219
2	220	221
2	222	223
2	224	225
2	226	227
2	228	229
2	230	231
2	232	233
2	234	235
2	236	237
2	238	239
2	240	241
2	242	243
2	244	245
2	246	247
2	248	249
2	250	251
2	252	253
2	254	255
2	256	257
2	258	259
2	260	261
2	262	263
2	264	265
2	266	267
2	268	269
2	270	271
2	272	273
2	274	275
2	276	277
2	278	279
2	280	281
2	282	283
2	284	285
2	286	287
2	288	289
2	290	291
2	292	293
2	294	295
2	296	297
2	298	299
2	300	301
2	302	303
2	304	305
2	306	307
2	308	309
2	310	311
2	312	313
2	314	315
2	316	317
2	318	319
2	320	321
2	322	323
2	324	325
2	326	327
2	328	329
2	330	331
2	332	333
2	334	335
2	336	337
2	338	339
2	340	341
2	342	343
2	344	345
2	346	347
2	348	349
2	350	351
2	352	353
2	354	355
2	356	357
2	358	359
2	360	361
2	362	363
2	364	365
2	366	367
2	368	369
2	370	371
2	372	373
2	374	375
2	376	377
2	378	379
2	380	381
2	382	383
2	384	385
2	386	387
2	388	389
2	390	391
2	392	393
2	394	395
2	396	397
2	398	399
2	400	401
2	402	403
2	404	405
2	406	407
2	408	409
2	410	411
2	412	413
2	414	415
2	416	417
2	418	419
2	420	421
2	422	423
2	424	425
2	426	427
2	428	429
2	430	431
2	432	433
2	434	435
2	436	437
2	438	439
2	440	441
2	442	443
2	444	445
2	446	447
2	448	449
2	450	451
2	452	453
2	454	455
2	456	457
2	458	459
2	460	461
2	462	463
2	464	465
2	466	467
2	468	469
2	470	471
2	472	473
2	474	475
2	476	477
2	478	479
2	480	481
2	482	483
2	484	485
2	486	487
2	488	489
2	490	491
2	492	493
2	494	495
2	496	497
2	498	499
2	500	501
2	502	503
2	504	505
2	506	507
2	508	509
2	510	511

CELL_TYPES 256
 3 3 3 3 3 3 3 3 3 3 3 3 3 3 3 3 3 3 3 3 3 3 3 3 3 3 3 3 3 3 3 3 3 3 3 3 3 3 3 3 3 3 3 3 3 3 3 3 3 3 3 3 3 3 3 3 3 3 3 3 3 3 3 3 3 3 3 3 3 3 3 3 3 3 3 3 3 3 3 3 3 3 3 3 3 3 3 3 3 3 3 3 3 3 3 3 3 3 3 3 3 3 3 3 3 3 3 3 3 3 3 3 3 3 3 3 3 3 3 3 3 3 3 3 3 3 3 3 3 3 3 3 3 3 3 3 3 3 3 3 3 3 3 3 3 3 3 3 3 3 3 3 3 3 3 3 3 3 3 3 3 3 3 3 3 3 3 3 3 3 3 3 3 3 3 3 3 3 3 3 3 3 3 3 3 3 3 3 3 3 3 3 3 3 3 3 3 3 3 3 3 3 3 3 3 3 3 3 3 3 3 3 3 3 3 3 3 3 3 3 3 3 3 3 3 3 3 3 3 3 3 3 3 3 3 3 3 3 3 3 3 3 3 3 3 3 3 3 3 3 3 3 3 3 3 3
POINT_DATA 512
VECTORS electric_field double
-12.5664 0 0
-12.5173 0 0
-12.5173 0 0
-12.4682 0 0
-12.4682 0 0
-12.4191 0 0
-12.4191 0 0
-12.37 0 0
-12.37 0 0
-12.3209 0 0
-12.3209 0 0
-12.2718 0 0
-12.2718 0 0
-12.2227 0 0
-12.2227 0 0
-12.1737 0 0
-12.1737 0 0
-12.1246 0 0
-12.1246 0 0
-12.0755 0 0
-12.0755 0 0
-12.0264 0 0
-12.0264 0 0
-11.9773 0 0
-11.9773 0 0
-11.9282 0 0
-11.9282 0 0
-11.8791 0 0
-11.8791 0 0
-11.83 0 0
-11.83 0 0
-11.781 0 0
-11.781 0 0
-11.7319 0 0
-11.7319 0 0
-11.6828 0 0
-11.6828 0 0
-11.6337 0 0
-11.6337 0 0
-11.5846 0 0
-11.5846 0 0
-11.5355 0 0
-11.5355 0 0
-11.4864 0 0
-11.4864 0 0
-11.4373 0 0
-11.4373 0 0
-11.3883 0 0
-11.3883 0 0
-11.3392 0 0
-11.3392 0 0
-11.2901 0 0
-11.2901 0 0
-11.241 0 0
-11.241 0 0
-11.1919 0 0
-11.1919 0 0
-11.1428 0 0
-11.1428 0 0
-11.0937 0 0
-11.0937 0 0
-11.0447 0 0
-11.0447 0 0
-10.9956 0 0
-10.9956 0 0
-10.9465 0 0
-10.9465 0 0
-10.8974 0 0
-10.8974 0 0
-10.8483 0 0
-10.8483 0 0
-10.7992 0 0
-10.7992 0 0
-10.7501 0 0
-10.7501 0 0
-10.701 0 0
-10.701 0 0
-10.652 0 0
-10.652 0 0
-10.6029 0 0
-10.6029 0 0
-10.5538 0 0
-10.5538 0 0
-10.5047 0 0
-10.5047 0 0
-10.4556 0 0
-10.4556 0 0
-10.4065 0 0
-10.4065 0 0
-10.3574 0 0
-10.3574 0 0
-10.3083 0 0
-10.3083 0 0
-10.2593 0 0
-10.2593 0 0
-10.2102 0 0
-10.2102 0 0
-10.1611 0 0
-10.1611 0 0
-10.112 0 0
-10.112 0 0
-10.0629 0 0
-10.0629 0 0
-10.0138 0 0
-10.0138 0 0
-9.96473 0 0
-9.96473 0 0
-9.91564 0 0
-9.91564 0 0
-9.86655 0 0
-9.86655 0 0
-9.81747 0 0
-9.81747 0 0
-9.76838 0 0
-9.76838 0 0
-9.71929 0 0
-9.71929 0 0
-9.6702 0 0
-9.6702 0 0
-9.62112 0 0
-9.62112 0 0
-9.57203 0 0
-9.57203 0 0
-9.52294 0 0
-9.52294 0 0
-9.47385 0 0
-9.47385 0 0
-9.42477 0 0
-9.42477 0 0
-9.37568 0 0
-9.37568 0 0
-9.32659 0 0
-9.32659 0 0
-9.2775 0 0
-9.2775 0 0
-9.22842 0 0
-9.22842 0 0
-9.17933 0 0
-9.17933 0 0
-9.13024 0 0
-9.13024 0 0
-9.08115 0 0
-9.08115 0 0
-9.03207 0 0
-9.03207 0 0
-8.98298 0 0
-8.98298 0 0
-8.93389 0 0
-8.93389 0 0
-8.88481 0 0
-8.88481 0 0
-8.83572 0 0
-8.83572 0 0
-8.78663 0 0
-8.78663 0 0
-8.73754 0 0
-8.73754 0 0
-8.68846 0 0
-8.68846 0 0
-8.63937 0 0
-8.63937 0 0
-8.59028 0 0
-8.59028 0 0
-8.54119 0 0
-8.54119 0 0
-8.49211 0 0
-8.49211 0 0
-8.44302 0 0
-8.44302 0 0
-8.39393 0 0
-8.39393 0 0
-8.34484 0 0
-8.34484 0 0
-8.29576 0 0
-8.29576 0 0
-8.24667 0 0
-8.24667 0 0
-8.19758 0 0
-8.19758 0 0
-8.14849 0 0
-8.14849 0 0
-8.09941 0 0
-8.09941 0 0
-8.05032 0 0
-8.05032 0 0
-8.00123 0 0
-8.00123 0 0
-7.95215 0 0
-7.95215 0 0
-7.90306 0 0
-7.90306 0 0
-7.85397 0 0
-7.85397 0 0
-7.80488 0 0
-7.80488 0 0
-7.7558 0 0
-7.7558 0 0
-7.70671 0 0
-7.70671 0 0
-7.65762 0 0
-7.65762 0 0
-7.60853 0 0
-7.60853 0 0
-7.55945 0 0
-7.55945 0 0
-7.51036 0 0
-7.51036 0 0
-7.46127 0 0
-7.46127 0 0
-7.41218 0 0
-7.41218 0 0
-7.3631 0 0
-7.3631 0 0
-7.31401 0 0
-7.31401 0 0
-7.26492 0 0
-7.26492 0 0
-7.21583 0 0
-7.21583 0 0
-7.16675 0 0
-7.16675 0 0
-7.11766 0 0
-7.11766 0 0
-7.06857 0 0
-7.06857 0 0
-7.01948 0 0
-7.01948 0 0
-6.9704 0 0
-6.9704 0 0
-6.92131 0 0
-6.92131 0 0
-6.87222 0 0
-6.87222 0 0
-6.82313 0 0
-6.82313 0 0
-6.77405 0 0
-6.77405 0 0
-6.72496 0 0
-6.72496 0 0
-6.67587 0 0
-6.67587 0 0
-6.62679 0 0
-6.62679 0 0
-6.5777 0 0
-6.5777 0 0
-6.52861 0 0
-6.52861 0 0
-6.47952 0 0
-6.47952 0 0
-6.43044 0 0
-6.43044 0 0
-6.38135 0 0
-6.38135 0 0
-6.33226 0 0
-6.33226 0 0
-6.28317 0 0
-6.28317 0 0
-6.23409 0 0
-6.23409 0 0
-6.185 0 0
-6.185 0 0
-6.13591 0 0
-6.13591 0 0
-6.08682 0 0
-6.08682 0 0
-6.03774 0 0
-6.03774 0 0
-5.98865 0 0
-5.98865 0 0
-5.93956 0 0
-5.93956 0 0
-5.89047 0 0
-5.89047 0 0
-5.84139 0 0
-5.84139 0 0
-5.7923 0 0
-5.7923 0 0
-5.74321 0 0
-5.74321 0 0
-5.69413 0 0
-5.69413 0 0
-5.64504 0 0
-5.64504 0 0
-5.59595 0 0
-5.59595 0 0
-5.54686 0 0
-5.54686 0 0
-5.49778 0 0
-5.49778 0 0
-5.44869 0 0
-5.44869 0 0
-5.3996 0 0
-5.3996 0 0
-5.35051 0 0
-5.35051 0 0
-5.30143 0 0
-5.30143 0 0
-5.25234 0 0
-5.25234 0 0
-5.20325 0 0
-5.20325 0 0
-5.15416 0 0
-5.15416 0 0
-5.10508 0 0
-5.10508 0 0
-5.05599 0 0
-5.05599 0 0
-5.0069 0 0
-5.0069 0 0
-4.95781 0 0
-4.95781 0 0
-4.90873 0 0
-4.90873 0 0
-4.85964 0 0
-4.85964 0 0
-4.81055 0 0
-4.81055 0 0
-4.76147 0 0
-4.76147 0 0
-4.71238 0 0
-4.71238 0 0
-4.66329 0 0
-4.66329 0 0
-4.6142 0 0
-4.6142 0 0
-4.56512 0 0
-4.56512 0 0
-4.51603 0 0
-4.51603 0 0
-4.46694 0 0
-4.46694 0 0
-4.41785 0 0
-4.41785 0 0
-4.36877 0 0
-4.36877 0 0
-4.31968 0 0
-4.31968 0 0
-4.27059 0 0
-4.27059 0 0
-4.2215 0 0
-4.2215 0 0
-4.17242 0 0
-4.17242 0 0
-4.12333 0 0
-4.12333 0 0
-4.07424 0 0
-4.07424 0 0
-4.02515 0 0
-4.02515 0 0
-3.97607 0 0
-3.97607 0 0
-3.92698 0 0
-3.92698 0 0
-3.87789 0 0
-3.87789 0 0
-3.8288 0 0
-3.8288 0 0
-3.77972 0 0
-3.77972 0 0
-3.73063 0 0
-3.73063 0 0
-3.68154 0 0
-3.68154 0 0
-3.63246 0 0
-3.63246 0 0
-3.58337 0 0
-3.58337 0 0
-3.53428 0 0
-3.53428 0 0
-3.48519 0 0
-3.48519 0 0
-3.43611 0 0
-3.43611 0 0
-3.38702 0 0
-3.38702 0 0
-3.33793 0 0
-3.33793 0 0
-3.28884 0 0
-3.28884 0 0
-3.23976 0 0
-3.23976 0 0
-3.19067 0 0
-3.19067 0 0
-3.14158 0 0
-3.14158 0 0
-3.09249 0 0
-3.09249 0 0
-3.04341 0 0
-3.04341 0 0
-2.99432 0 0
-2.99432 0 0
-2.94523 0 0
-2.94523 0 0
-2.89614 0 0
-2.89614 0 0
-2.84706 0 0
-2.84706 0 0
-2.79797 0 0
-2.79797 0 0
-2.74888 0 0
-2.74888 0 0
-2.69979 0 0
-2.69979 0 0
-2.65071 0 0
-2.65071 0 0
-2.60162 0 0
-2.60162 0 0
-2.55253 0 0
-2.55253 0 0
-2.50345 0 0
-2.50345 0 0
-2.45436 0 0
-2.45436 0 0
-2.40527 0 0
-2.40527 0 0
-2.35618 0 0
-2.35618 0 0
-2.3071 0 0
-2.3071 0 0
-2.25801 0 0
-2.25801 0 0
-2.20892 0 0
-2.20892 0 0
-2.15983 0 0
-2.15983 0 0
-2.11075 0 0
-2.11075 0 0
-2.06166 0 0
-2.06166 0 0
-2.01257 0 0
-2.01257 0 0
-1.96348 0 0
-1.96348 0 0
-1.9144 0 0
-1.9144 0 0
-1.86531 0 0
-1.86531 0 0
-1.81622 0 0
-1.81622 0 0
-1.76713 0 0
-1.76713 0 0
-1.71805 0 0
-1.71805 0 0
-1.66896 0 0
-1.66896 0 0
-1.61988 0 0
-1.61988 0 0
-1.57079 0 0
-1.57079 0 0
-1.5217 0 0
-1.5217 0 0
-1.47262 0 0
-1.47262 0 0
-1.42353 0 0
-1.42353 0 0
-1.37444 0 0
-1.37444 0 0
-1.32535 0 0
-1.32535 0 0
-1.27627 0 0
-1.27627 0 0
-1.22718 0 0
-1.22718 0 0
-1.1781 0 0
-1.1781 0 0
-1.12901 0 0
-1.12901 0 0
-1.07992 0 0
-1.07992 0 0
-1.03083 0 0
-1.03083 0 0
-0.981746 0 0
-0.981746 0 0
-0.932659 0 0
-0.932659 0 0
-0.883572 0 0
-0.883572 0 0
-0.834484 0 0
-0.834484 0 0
-0.785398 0 0
-0.785398 0 0
-0.736311 0 0
-0.736311 0 0
-0.687223 0 0
-0.687223 0 0
-0.638136 0 0
-0.638136 0 0
-0.589049 0 0
-0.589049 0 0
-0.539961 0 0
-0.539961 0 0
-0.490874 0 0
-0.490874 0 0
-0.441786 0 0
-0.441786 0 0
-0.392699 0 0
-0.392699 0 0
-0.343612 0 0
-0.343612 0 0
-0.294524 0 0
-0.294524 0 0
-0.245437 0 0
-0.245437 0 0
-0.19635 0 0
-0.19635 0 0
-0.147262 0 0
-0.147262 0 0
-0.0981748 0 0
-0.0981748 0 0
-0.0490874 0 0
-0.0490874 0 0
5.82077e-11 0 0
SCALARS potential double 1
LOOKUP_TABLE default
0 0.615645 0.615645 1.22888 1.22888 1.83971 1.83971 2.44812 2.44812 3.05413 3.05413 3.65773 3.65773 4.25891 4.25891 4.85769 4.85769 5.45406 5.45406 6.04802 6.04802 6.63957 6.63957 7.22871 7.22871 7.81544 7.81544 8.39976 8.39976 8.98167 8.98167 9.56117 9.56117 10.1383 10.1383 10.7129 10.7129 11.2852 11.2852 11.8551 11.8551 12.4225 12.4225 12.9876 12.9876 13.5502 13.5502 14.1104 14.1104 14.6683 14.6683 15.2237 15.2237 15.7767 15.7767 16.3272 16.3272 16.8754 16.8754 17.4212 17.4212 17.9645 17.9645 18.5055 18.5055 19.044 19.044 19.5802 19.5802 20.1139 20.1139 20.6452 20.6452 21.1741 21.1741 21.7006 21.7006 22.2247 22.2247 22.7463 22.7463 23.2656 23.2656 23.7824 23.7824 24.2969 24.2969 24.8089 24.8089 25.3185 25.3185 25.8258 25.8258 26.3306 26.3306 26.833 26.833 27.3329 27.3329 27.8305 27.8305 28.3257 28.3257 28.8184 28.8184 29.3088 29.3088 29.7967 29.7967 30.2823 30.2823 30.7654 30.7654 31.2461 31.2461 31.7244 31.7244 32.2003 32.2003 32.6738 32.6738 33.1448 33.1448 33.6135 33.6135 34.0797 34.0797 34.5436 34.5436 35.005 35.005 35.464 35.464 35.9206 35.9206 36.3749 36.3749 36.8266 36.8266 37.276 37.276 37.723 37.723 38.1676 38.1676 38.6097 38.6097 39.0495 39.0495 39.4868 39.4868 39.9217 39.9217 40.3543 40.3543 40.7844 40.7844 41.2121 41.2121 41.6373 41.6373 42.0602 42.0602 42.4807 42.4807 42.8988 42.8988 43.3144 43.3144 43.7276 43.7276 44.1385 44.1385 44.5469 44.5469 44.9529 44.9529 45.3565 45.3565 45.7577 45.7577 46.1565 46.1565 46.5529 46.5529 46.9468 46.9468 47.3384 47.3384 47.7275 47.7275 48.1143 48.1143 48.4986 48.4986 48.8805 48.8805 49.26 49.26 49.6371 49.6371 50.0118 50.0118 50.3841 50.3841 50.7539 50.7539 51.1214 51.1214 51.4865 51.4865 51.8491 51.8491 52.2093 52.2093 52.5672 52.5672 52.9226 52.9226 53.2756 53.2756 53.6262 53.6262 53.9743 53.9743 54.3201 54.3201 54.6635 54.6635 55.0044 55.0044 55.343 55.343 55.6791 55.6791 56.0128 56.0128 56.3441 56.3441 56.673 56.673 56.9995 56.9995 57.3236 57.3236 57.6453 57.6453 57.9646 57.9646 58.2814 58.2814 58.5959 58.5959 58.9079 58.9079 59.2176 59.2176 59.5248 59.5248 59.8296 59.8296 60.132 60.132 60.432 60.432 60.7296 60.7296 61.0247 61.0247 61.3175 61.3175 61.6078 61.6078 61.8958 61.8958 62.1813 62.1813 62.4644 62.4644 62.7452 62.7452 63.0235 63.0235 63.2994 63.2994 63.5728 63.5728 63.8439 63.8439 64.1126 64.1126 64.3788 64.3788 64.6427 64.6427 64.9041 64.9041 65.1632 65.1632 65.4198 65.4198 65.674 65.674 65.9258 65.9258 66.1752 66.1752 66.4222 66.4222 66.6667 66.6667 66.9089 66.9089 67.1486 67.1486 67.386 67.386 67.6209 67.6209 67.8534 67.8534 68.0836 68.0836 68.3113 68.3113 68.5366 68.5366 68.7594 68.7594 68.9799 68.9799 69.198 69.198 69.4136 69.4136 69.6269 69.6269 69.8377 69.8377 70.0461 70.0461 70.2522 70.2522 70.4558 70.4558 70.657 70.657 70.8558 70.8558 71.0521 71.0521 71.2461 71.2461 71.4377 71.4377 71.6268 71.6268 71.8136 71.8136 71.9979 71.9979 72.1798 72.1798 72.3593 72.3593 72.5364 72.5364 72.7111 72.7111 72.8834 72.8834 73.0533 73.0533 73.2207 73.2207 73.3858 73.3858 73.5484 73.5484 73.7087 73.7087 73.8665 73.8665 74.0219 74.0219 74.1749 74.1749 74.3255 74.3255 74.4737 74.4737 74.6195 74.6195 74.7629 74.7629 74.9038 74.9038 75.0424 75.0424 75.1785 75.1785 75.3122 75.3122 75.4436 75.4436 75.5725 75.5725 75.699 75.699 75.8231 75.8231 75.9448 75.9448 76.064 76.064 76.1809 76.1809 76.2953 76.2953 76.4074 76.4074 76.517 76.517 76.6243 76.6243 76.7291 76.7291 76.8315 76.8315 76.9315 76.9315 77.0291 77.0291 77.1242 77.1242 77.217 77.217 77.3074 77.3074 77.3953 77.3953 77.4809 77.4809 77.564 77.564 77.6447 77.6447 77.723 77.723 77.7989 77.7989 77.8724 77.8724 77.9435 77.9435 78.0122 78.0122 78.0784 78.0784 78.1423 78.1423 78.2037 78.2037 78.2627 78.2627 78.3194 78.3194 78.3736 78.3736 78.4254 78.4254 78.4748 78.4748 78.5218 78.5218 78.5664 78.5664 78.6085 78.6085 78.6483 78.6483 78.6856 78.6856 78.7206 78.7206 78.7531 78.7531 78.7832 78.7832 78.8109 78.8109 78.8362 78.8362 78.8591 78.8591 78.8796 78.8796 78.8977 78.8977 78.9133 78.9133 78.9266 78.9266 78.9374 78.9374 78.9459 78.9459 78.9519 78.9519 78.9555 78.9555 78.9567 
SCALARS x_coordinate double 1
LOOKUP_TABLE default
0 0.0490874 0.0490874 0.0981748 0.0981748 0.147262 0.147262 0.19635 0.19635 0.245437 0.245437 0.294524 0.294524 0.343612 0.343612 0.392699 0.392699 0.441786 0.441786 0.490874 0.490874 0.539961 0.539961 0.589049 0.589049 0.638136 0.638136 0.687223 0.687223 0.736311 0.736311 0.785398 0.785398 0.834486 0.834486 0.883573 0.883573 0.93266 0.93266 0.981748 0.981748 1.03084 1.03084 1.07992 1.07992 1.12901 1.12901 1.1781 1.1781 1.22718 1.22718 1.27627 1.27627 1.32536 1.32536 1.37445 1.37445 1.42353 1.42353 1.47262 1.47262 1.52171 1.52171 1.5708 1.5708 1.61988 1.61988 1.66897 1.66897 1.71806 1.71806 1.76715 1.76715 1.81623 1.81623 1.86532 1.86532 1.91441 1.91441 1.9635 1.9635 2.01258 2.01258 2.06167 2.06167 2.11076 2.11076 2.15984 2.15984 2.20893 2.20893 2.25802 2.25802 2.30711 2.30711 2.35619 2.35619 2.40528 2.40528 2.45437 2.45437 2.50346 2.50346 2.55254 2.55254 2.60163 2.60163 2.65072 2.65072 2.69981 2.69981 2.74889 2.74889 2.79798 2.79798 2.84707 2.84707 2.89616 2.89616 2.94524 2.94524 2.99433 2.99433 3.04342 3.04342 3.09251 3.09251 3.14159 3.14159 3.19068 3.19068 3.23977 3.23977 3.28885 3.28885 3.33794 3.33794 3.38703 3.38703 3.43612 3.43612 3.4852 3.4852 3.53429 3.53429 3.58338 3.58338 3.63247 3.63247 3.68155 3.68155 3.73064 3.73064 3.77973 3.77973 3.82882 3.82882 3.8779 3.8779 3.92699 3.92699 3.97608 3.97608 4.02517 4.02517 4.07425 4.07425 4.12334 4.12334 4.17243 4.17243 4.22152 4.22152 4.2706 4.2706 4.31969 4.31969 4.36878 4.36878 4.41786 4.41786 4.46695 4.46695 4.51604 4.51604 4.56513 4.56513 4.61421 4.61421 4.6633 4.6633 4.71239 4.71239 4.76148 4.76148 4.81056 4.81056 4.85965 4.85965 4.90874 4.90874 4.95783 4.95783 5.00691 5.00691 5.056 5.056 5.10509 5.10509 5.15418 5.15418 5.20326 5.20326 5.25235 5.25235 5.30144 5.30144 5.35052 5.35052 5.39961 5.39961 5.4487 5.4487 5.49779 5.49779 5.54687 5.54687 5.59596 5.59596 5.64505 5.64505 5.69414 5.69414 5.74322 5.74322 5.79231 5.79231 5.8414 5.8414 5.89049 5.89049 5.93957 5.93957 5.98866 5.98866 6.03775 6.03775 6.08684 6.08684 6.13592 6.13592 6.18501 6.18501 6.2341 6.2341 6.28319 6.28319 6.33227 6.33227 6.38136 6.38136 6.43045 6.43045 6.47953 6.47953 6.52862 6.52862 6.57771 6.57771 6.6268 6.6268 6.67588 6.67588 6.72497 6.72497 6.77406 6.77406 6.82315 6.82315 6.87223 6.87223 6.92132 6.92132 6.97041 6.97041 7.0195 7.0195 7.06858 7.06858 7.11767 7.11767 7.16676 7.16676 7.21585 7.21585 7.26493 7.26493 7.31402 7.31402 7.36311 7.36311 7.4122 7.4122 7.46128 7.46128 7.51037 7.51037 7.55946 7.55946 7.60854 7.60854 7.65763 7.65763 7.70672 7.70672 7.75581 7.75581 7.80489 7.80489 7.85398 7.85398 7.90307 7.90307 7.95216 7.95216 8.00124 8.00124 8.05033 8.05033 8.09942 8.09942 8.14851 8.14851 8.19759 8.19759 8.24668 8.24668 8.29577 8.29577 8.34486 8.34486 8.39394 8.39394 8.44303 8.44303 8.49212 8.49212 8.54121 8.54121 8.59029 8.59029 8.63938 8.63938 8.68847 8.68847 8.73755 8.73755 8.78664 8.78664 8.83573 8.83573 8.88482 8.88482 8.9339 8.9339 8.98299 8.98299 9.03208 9.03208 9.08117 9.08117 9.13025 9.13025 9.17934 9.17934 9.22843 9.22843 9.27752 9.27752 9.3266 9.3266 9.37569 9.37569 9.42478 9.42478 9.47387 9.47387 9.52295 9.52295 9.57204 9.57204 9.62113 9.62113 9.67021 9.67021 9.7193 9.7193 9.76839 9.76839 9.81748 9.81748 9.86656 9.86656 9.91565 9.91565 9.96474 9.96474 10.0138 10.0138 10.0629 10.0629 10.112 10.112 10.1611 10.1611 10.2102 10.2102 10.2593 10.2593 10.3084 10.3084 10.3574 10.3574 10.4065 10.4065 10.4556 10.4556 10.5047 10.5047 10.5538 10.5538 10.6029 10.6029 10.652 10.652 10.701 10.701 10.7501 10.7501 10.7992 10.7992 10.8483 10.8483 10.8974 10.8974 10.9465 10.9465 10.9956 10.9956 11.0447 11.0447 11.0937 11.0937 11.1428 11.1428 11.1919 11.1919 11.241 11.241 11.2901 11.2901 11.3392 11.3392 11.3883 11.3883 11.4374 11.4374 11.4864 11.4864 11.5355 11.5355 11.5846 11.5846 11.6337 11.6337 11.6828 11.6828 11.7319 11.7319 11.781 11.781 11.8301 11.8301 11.8791 11.8791 11.9282 11.9282 11.9773 11.9773 12.0264 12.0264 12.0755 12.0755 12.1246 12.1246 12.1737 12.1737 12.2228 12.2228 12.2718 12.2718 12.3209 12.3209 12.37 12.37 12.4191 12.4191 12.4682 12.4682 12.5173 12.5173 12.5664 
