# vtk DataFile Version 3.0
#This file was generated by the deal.II library on 2026/3/10 at 19:11:48
ASCII
DATASET UNSTRUCTURED_GRID

POINTS 512 double
0 0 0
0.0490874 0 0
0.0490874 0 0
0.0981748 0 0
0.0981748 0 0
0.147262 0 0
0.147262 0 0
0.19635 0 0
0.19635 0 0
0.245437 0 0
0.245437 0 0
0.294524 0 0
0.294524 0 0
0.343612 0 0
0.343612 0 0
0.392699 0 0
0.392699 0 0
0.441786 0 0
0.441786 0 0
0.490874 0 0
0.490874 0 0
0.539961 0 0
0.539961 0 0
0.589049 0 0
0.589049 0 0
0.638136 0 0
0.638136 0 0
0.687223 0 0
0.687223 0 0
0.736311 0 0
0.736311 0 0
0.785398 0 0
0.785398 0 0
0.834486 0 0
0.834486 0 0
0.883573 0 0
0.883573 0 0
0.93266 0 0
0.93266 0 0
0.981748 0 0
0.981748 0 0
1.03084 0 0
1.03084 0 0
1.07992 0 0
1.07992 0 0
1.12901 0 0
1.12901 0 0
1.1781 0 0
1.1781 0 0
1.22718 0 0
1.22718 0 0
1.27627 0 0
1.27627 0 0
1.32536 0 0
1.32536 0 0
1.37445 0 0
1.37445 0 0
1.42353 0 0
1.42353 0 0
1.47262 0 0
1.47262 0 0
1.52171 0 0
1.52171 0 0
1.5708 0 0
1.5708 0 0
1.61988 0 0
1.61988 0 0
1.66897 0 0
1.66897 0 0
1.71806 0 0
1.71806 0 0
1.76715 0 0
1.76715 0 0
1.81623 0 0
1.81623 0 0
1.86532 0 0
1.86532 0 0
1.91441 0 0
1.91441 0 0
1.9635 0 0
1.9635 0 0
2.01258 0 0
2.01258 0 0
2.06167 0 0
2.06167 0 0
2.11076 0 0
2.11076 0 0
2.15984 0 0
2.15984 0 0
2.20893 0 0
2.20893 0 0
2.25802 0 0
2.25802 0 0
2.30711 0 0
2.30711 0 0
2.35619 0 0
2.35619 0 0
2.40528 0 0
2.40528 0 0
2.45437 0 0
2.45437 0 0
2.50346 0 0
2.50346 0 0
2.55254 0 0
2.55254 0 0
2.60163 0 0
2.60163 0 0
2.65072 0 0
2.65072 0 0
2.69981 0 0
2.69981 0 0
2.74889 0 0
2.74889 0 0
2.79798 0 0
2.79798 0 0
2.84707 0 0
2.84707 0 0
2.89616 0 0
2.89616 0 0
2.94524 0 0
2.94524 0 0
2.99433 0 0
2.99433 0 0
3.04342 0 0
3.04342 0 0
3.09251 0 0
3.09251 0 0
3.14159 0 0
3.14159 0 0
3.19068 0 0
3.19068 0 0
3.23977 0 0
3.23977 0 0
3.28885 0 0
3.28885 0 0
3.33794 0 0
3.33794 0 0
3.38703 0 0
3.38703 0 0
3.43612 0 0
3.43612 0 0
3.4852 0 0
3.4852 0 0
3.53429 0 0
3.53429 0 0
3.58338 0 0
3.58338 0 0
3.63247 0 0
3.63247 0 0
3.68155 0 0
3.68155 0 0
3.73064 0 0
3.73064 0 0
3.77973 0 0
3.77973 0 0
3.82882 0 0
3.82882 0 0
3.8779 0 0
3.8779 0 0
3.92699 0 0
3.92699 0 0
3.97608 0 0
3.97608 0 0
4.02517 0 0
4.02517 0 0
4.07425 0 0
4.07425 0 0
4.12334 0 0
4.12334 0 0
4.17243 0 0
4.17243 0 0
4.22152 0 0
4.22152 0 0
4.2706 0 0
4.2706 0 0
4.31969 0 0
4.31969 0 0
4.36878 0 0
4.36878 0 0
4.41786 0 0
4.41786 0 0
4.46695 0 0
4.46695 0 0
4.51604 0 0
4.51604 0 0
4.56513 0 0
4.56513 0 0
4.61421 0 0
4.61421 0 0
4.6633 0 0
4.6633 0 0
4.71239 0 0
4.71239 0 0
4.76148 0 0
4.76148 0 0
4.81056 0 0
4.81056 0 0
4.85965 0 0
4.85965 0 0
4.90874 0 0
4.90874 0 0
4.95783 0 0
4.95783 0 0
5.00691 0 0
5.00691 0 0
5.056 0 0
5.056 0 0
5.10509 0 0
5.10509 0 0
5.15418 0 0
5.15418 0 0
5.20326 0 0
5.20326 0 0
5.25235 0 0
5.25235 0 0
5.30144 0 0
5.30144 0 0
5.35052 0 0
5.35052 0 0
5.39961 0 0
5.39961 0 0
5.4487 0 0
5.4487 0 0
5.49779 0 0
5.49779 0 0
5.54687 0 0
5.54687 0 0
5.59596 0 0
5.59596 0 0
5.64505 0 0
5.64505 0 0
5.69414 0 0
5.69414 0 0
5.74322 0 0
5.74322 0 0
5.79231 0 0
5.79231 0 0
5.8414 0 0
5.8414 0 0
5.89049 0 0
5.89049 0 0
5.93957 0 0
5.93957 0 0
5.98866 0 0
5.98866 0 0
6.03775 0 0
6.03775 0 0
6.08684 0 0
6.08684 0 0
6.13592 0 0
6.13592 0 0
6.18501 0 0
6.18501 0 0
6.2341 0 0
6.2341 0 0
6.28319 0 0
6.28319 0 0
6.33227 0 0
6.33227 0 0
6.38136 0 0
6.38136 0 0
6.43045 0 0
6.43045 0 0
6.47953 0 0
6.47953 0 0
6.52862 0 0
6.52862 0 0
6.57771 0 0
6.57771 0 0
6.6268 0 0
6.6268 0 0
6.67588 0 0
6.67588 0 0
6.72497 0 0
6.72497 0 0
6.77406 0 0
6.77406 0 0
6.82315 0 0
6.82315 0 0
6.87223 0 0
6.87223 0 0
6.92132 0 0
6.92132 0 0
6.97041 0 0
6.97041 0 0
7.0195 0 0
7.0195 0 0
7.06858 0 0
7.06858 0 0
7.11767 0 0
7.11767 0 0
7.16676 0 0
7.16676 0 0
7.21585 0 0
7.21585 0 0
7.26493 0 0
7.26493 0 0
7.31402 0 0
7.31402 0 0
7.36311 0 0
7.36311 0 0
7.4122 0 0
7.4122 0 0
7.46128 0 0
7.46128 0 0
7.51037 0 0
7.51037 0 0
7.55946 0 0
7.55946 0 0
7.60854 0 0
7.60854 0 0
7.65763 0 0
7.65763 0 0
7.70672 0 0
7.70672 0 0
7.75581 0 0
7.75581 0 0
7.80489 0 0
7.80489 0 0
7.85398 0 0
7.85398 0 0
7.90307 0 0
7.90307 0 0
7.95216 0 0
7.95216 0 0
8.00124 0 0
8.00124 0 0
8.05033 0 0
8.05033 0 0
8.09942 0 0
8.09942 0 0
8.14851 0 0
8.14851 0 0
8.19759 0 0
8.19759 0 0
8.24668 0 0
8.24668 0 0
8.29577 0 0
8.29577 0 0
8.34486 0 0
8.34486 0 0
8.39394 0 0
8.39394 0 0
8.44303 0 0
8.44303 0 0
8.49212 0 0
8.49212 0 0
8.54121 0 0
8.54121 0 0
8.59029 0 0
8.59029 0 0
8.63938 0 0
8.63938 0 0
8.68847 0 0
8.68847 0 0
8.73755 0 0
8.73755 0 0
8.78664 0 0
8.78664 0 0
8.83573 0 0
8.83573 0 0
8.88482 0 0
8.88482 0 0
8.9339 0 0
8.9339 0 0
8.98299 0 0
8.98299 0 0
9.03208 0 0
9.03208 0 0
9.08117 0 0
9.08117 0 0
9.13025 0 0
9.13025 0 0
9.17934 0 0
9.17934 0 0
9.22843 0 0
9.22843 0 0
9.27752 0 0
9.27752 0 0
9.3266 0 0
9.3266 0 0
9.37569 0 0
9.37569 0 0
9.42478 0 0
9.42478 0 0
9.47387 0 0
9.47387 0 0
9.52295 0 0
9.52295 0 0
9.57204 0 0
9.57204 0 0
9.62113 0 0
9.62113 0 0
9.67021 0 0
9.67021 0 0
9.7193 0 0
9.7193 0 0
9.76839 0 0
9.76839 0 0
9.81748 0 0
9.81748 0 0
9.86656 0 0
9.86656 0 0
9.91565 0 0
9.91565 0 0
9.96474 0 0
9.96474 0 0
10.0138 0 0
10.0138 0 0
10.0629 0 0
10.0629 0 0
10.112 0 0
10.112 0 0
10.1611 0 0
10.1611 0 0
10.2102 0 0
10.2102 0 0
10.2593 0 0
10.2593 0 0
10.3084 0 0
10.3084 0 0
10.3574 0 0
10.3574 0 0
10.4065 0 0
10.4065 0 0
10.4556 0 0
10.4556 0 0
10.5047 0 0
10.5047 0 0
10.5538 0 0
10.5538 0 0
10.6029 0 0
10.6029 0 0
10.652 0 0
10.652 0 0
10.701 0 0
10.701 0 0
10.7501 0 0
10.7501 0 0
10.7992 0 0
10.7992 0 0
10.8483 0 0
10.8483 0 0
10.8974 0 0
10.8974 0 0
10.9465 0 0
10.9465 0 0
10.9956 0 0
10.9956 0 0
11.0447 0 0
11.0447 0 0
11.0937 0 0
11.0937 0 0
11.1428 0 0
11.1428 0 0
11.1919 0 0
11.1919 0 0
11.241 0 0
11.241 0 0
11.2901 0 0
11.2901 0 0
11.3392 0 0
11.3392 0 0
11.3883 0 0
11.3883 0 0
11.4374 0 0
11.4374 0 0
11.4864 0 0
11.4864 0 0
11.5355 0 0
11.5355 0 0
11.5846 0 0
11.5846 0 0
11.6337 0 0
11.6337 0 0
11.6828 0 0
11.6828 0 0
11.7319 0 0
11.7319 0 0
11.781 0 0
11.781 0 0
11.8301 0 0
11.8301 0 0
11.8791 0 0
11.8791 0 0
11.9282 0 0
11.9282 0 0
11.9773 0 0
11.9773 0 0
12.0264 0 0
12.0264 0 0
12.0755 0 0
12.0755 0 0
12.1246 0 0
12.1246 0 0
12.1737 0 0
12.1737 0 0
12.2228 0 0
12.2228 0 0
12.2718 0 0
12.2718 0 0
12.3209 0 0
12.3209 0 0
12.37 0 0
12.37 0 0
12.4191 0 0
12.4191 0 0
12.4682 0 0
12.4682 0 0
12.5173 0 0
12.5173 0 0
12.5664 0 0

CELLS 256 768
2	0	1
2	2	3
2	4	5
2	6	7
2	8	9
2	10	11
2	12	13
2	14	15
2	16	17
2	18	19
2	20	21
2	22	23
2	24	25
2	26	27
2	28	29
2	30	31
2	32	33
2	34	35
2	36	37
2	38	39
2	40	41
2	42	43
2	44	45
2	46	47
2	48	49
2	50	51
2	52	53
2	54	55
2	56	57
2	58	59
2	60	61
2	62	63
2	64	65
2	66	67
2	68	69
2	70	71
2	72	73
2	74	75
2	76	77
2	78	79
2	80	81
2	82	83
2	84	85
2	86	87
2	88	89
2	90	91
2	92	93
2	94	95
2	96	97
2	98	99
2	100	101
2	102	103
2	104	105
2	106	107
2	108	109
2	110	111
2	112	113
2	114	115
2	116	117
2	118	119
2	120	121
2	122	123
2	124	125
2	126	127
2	128	129
2	130	131
2	132	133
2	134	135
2	136	137
2	138	139
2	140	141
2	142	143
2	144	145
2	146	147
2	148	149
2	150	151
2	152	153
2	154	155
2	156	157
2	158	159
2	160	161
2	162	163
2	164	165
2	166	167
2	168	169
2	170	171
2	172	173
2	174	175
2	176	177
2	178	179
2	180	181
2	182	183
2	184	185
2	186	187
2	188	189
2	190	191
2	192	193
2	194	195
2	196	197
2	198	199
2	200	201
2	202	203
2	204	205
2	206	207
2	208	209
2	210	211
2	212	213
2	214	215
2	216	217
2	218	219
2	220	221
2	222	223
2	224	225
2	226	227
2	228	229
2	230	231
2	232	233
2	234	235
2	236	237
2	238	239
2	240	241
2	242	243
2	244	245
2	246	247
2	248	249
2	250	251
2	252	253
2	254	255
2	256	257
2	258	259
2	260	261
2	262	263
2	264	265
2	266	267
2	268	269
2	270	271
2	272	273
2	274	275
2	276	277
2	278	279
2	280	281
2	282	283
2	284	285
2	286	287
2	288	289
2	290	291
2	292	293
2	294	295
2	296	297
2	298	299
2	300	301
2	302	303
2	304	305
2	306	307
2	308	309
2	310	311
2	312	313
2	314	315
2	316	317
2	318	319
2	320	321
2	322	323
2	324	325
2	326	327
2	328	329
2	330	331
2	332	333
2	334	335
2	336	337
2	338	339
2	340	341
2	342	343
2	344	345
2	346	347
2	348	349
2	350	351
2	352	353
2	354	355
2	356	357
2	358	359
2	360	361
2	362	363
2	364	365
2	366	367
2	368	369
2	370	371
2	372	373
2	374	375
2	376	377
2	378	379
2	380	381
2	382	383
2	384	385
2	386	387
2	388	389
2	390	391
2	392	393
2	394	395
2	396	397
2	398	399
2	400	401
2	402	403
2	404	405
2	406	407
2	408	409
2	410	411
2	412	413
2	414	415
2	416	417
2	418	419
2	420	421
2	422	423
2	424	425
2	426	427
2	428	429
2	430	431
2	432	433
2	434	435
2	436	437
2	438	439
2	440	441
2	442	443
2	444	445
2	446	447
2	448	449
2	450	451
2	452	453
2	454	455
2	456	457
2	458	459
2	460	461
2	462	463
2	464	465
2	466	467
2	468	469
2	470	471
2	472	473
2	474	475
2	476	477
2	478	479
2	480	481
2	482	483
2	484	485
2	486	487
2	488	489
2	490	491
2	492	493
2	494	495
2	496	497
2	498	499
2	500	501
2	502	503
2	504	505
2	506	507
2	508	509
2	510	511

CELL_TYPES 256
 3 3 3 3 3 3 3 3 3 3 3 3 3 3 3 3 3 3 3 3 3 3 3 3 3 3 3 3 3 3 3 3 3 3 3 3 3 3 3 3 3 3 3 3 3 3 3 3 3 3 3 3 3 3 3 3 3 3 3 3 3 3 3 3 3 3 3 3 3 3 3 3 3 3 3 3 3 3 3 3 3 3 3 3 3 3 3 3 3 3 3 3 3 3 3 3 3 3 3 3 3 3 3 3 3 3 3 3 3 3 3 3 3 3 3 3 3 3 3 3 3 3 3 3 3 3 3 3 3 3 3 3 3 3 3 3 3 3 3 3 3 3 3 3 3 3 3 3 3 3 3 3 3 3 3 3 3 3 3 3 3 3 3 3 3 3 3 3 3 3 3 3 3 3 3 3 3 3 3 3 3 3 3 3 3 3 3 3 3 3 3 3 3 3 3 3 3 3 3 3 3 3 3 3 3 3 3 3 3 3 3 3 3 3 3 3 3 3 3 3 3 3 3 3 3 3 3 3 3 3 3 3 3 3 3 3 3 3 3 3 3 3 3 3 3 3 3 3 3 3 3 3 3 3 3 3
POINT_DATA 512
VECTORS electric_field double
-12.5663 0 0
-12.5172 0 0
-12.5172 0 0
-12.4682 0 0
-12.4682 0 0
-12.4191 0 0
-12.4191 0 0
-12.37 0 0
-12.37 0 0
-12.3209 0 0
-12.3209 0 0
-12.2718 0 0
-12.2718 0 0
-12.2227 0 0
-12.2227 0 0
-12.1736 0 0
-12.1736 0 0
-12.1245 0 0
-12.1245 0 0
-12.0755 0 0
-12.0755 0 0
-12.0264 0 0
-12.0264 0 0
-11.9773 0 0
-11.9773 0 0
-11.9282 0 0
-11.9282 0 0
-11.8791 0 0
-11.8791 0 0
-11.83 0 0
-11.83 0 0
-11.7809 0 0
-11.7809 0 0
-11.7318 0 0
-11.7318 0 0
-11.6828 0 0
-11.6828 0 0
-11.6337 0 0
-11.6337 0 0
-11.5846 0 0
-11.5846 0 0
-11.5355 0 0
-11.5355 0 0
-11.4864 0 0
-11.4864 0 0
-11.4373 0 0
-11.4373 0 0
-11.3882 0 0
-11.3882 0 0
-11.3391 0 0
-11.3391 0 0
-11.2901 0 0
-11.2901 0 0
-11.241 0 0
-11.241 0 0
-11.1919 0 0
-11.1919 0 0
-11.1428 0 0
-11.1428 0 0
-11.0937 0 0
-11.0937 0 0
-11.0446 0 0
-11.0446 0 0
-10.9955 0 0
-10.9955 0 0
-10.9464 0 0
-10.9464 0 0
-10.8974 0 0
-10.8974 0 0
-10.8483 0 0
-10.8483 0 0
-10.7992 0 0
-10.7992 0 0
-10.7501 0 0
-10.7501 0 0
-10.701 0 0
-10.701 0 0
-10.6519 0 0
-10.6519 0 0
-10.6028 0 0
-10.6028 0 0
-10.5538 0 0
-10.5538 0 0
-10.5047 0 0
-10.5047 0 0
-10.4556 0 0
-10.4556 0 0
-10.4065 0 0
-10.4065 0 0
-10.3574 0 0
-10.3574 0 0
-10.3083 0 0
-10.3083 0 0
-10.2592 0 0
-10.2592 0 0
-10.2101 0 0
-10.2101 0 0
-10.1611 0 0
-10.1611 0 0
-10.112 0 0
-10.112 0 0
-10.0629 0 0
-10.0629 0 0
-10.0138 0 0
-10.0138 0 0
-9.9647 0 0
-9.9647 0 0
-9.91561 0 0
-9.91561 0 0
-9.86653 0 0
-9.86653 0 0
-9.81744 0 0
-9.81744 0 0
-9.76835 0 0
-9.76835 0 0
-9.71926 0 0
-9.71926 0 0
-9.67018 0 0
-9.67018 0 0
-9.62109 0 0
-9.62109 0 0
-9.572 0 0
-9.572 0 0
-9.52291 0 0
-9.52291 0 0
-9.47383 0 0
-9.47383 0 0
-9.42474 0 0
-9.42474 0 0
-9.37565 0 0
-9.37565 0 0
-9.32656 0 0
-9.32656 0 0
-9.27748 0 0
-9.27748 0 0
-9.22839 0 0
-9.22839 0 0
-9.1793 0 0
-9.1793 0 0
-9.13022 0 0
-9.13022 0 0
-9.08113 0 0
-9.08113 0 0
-9.03204 0 0
-9.03204 0 0
-8.98295 0 0
-8.98295 0 0
-8.93387 0 0
-8.93387 0 0
-8.88478 0 0
-8.88478 0 0
-8.83569 0 0
-8.83569 0 0
-8.7866 0 0
-8.7866 0 0
-8.73752 0 0
-8.73752 0 0
-8.68843 0 0
-8.68843 0 0
-8.63934 0 0
-8.63934 0 0
-8.59025 0 0
-8.59025 0 0
-8.54117 0 0
-8.54117 0 0
-8.49208 0 0
-8.49208 0 0
-8.44299 0 0
-8.44299 0 0
-8.3939 0 0
-8.3939 0 0
-8.34482 0 0
-8.34482 0 0
-8.29573 0 0
-8.29573 0 0
-8.24664 0 0
-8.24664 0 0
-8.19756 0 0
-8.19756 0 0
-8.14847 0 0
-8.14847 0 0
-8.09938 0 0
-8.09938 0 0
-8.05029 0 0
-8.05029 0 0
-8.00121 0 0
-8.00121 0 0
-7.95212 0 0
-7.95212 0 0
-7.90303 0 0
-7.90303 0 0
-7.85394 0 0
-7.85394 0 0
-7.80486 0 0
-7.80486 0 0
-7.75577 0 0
-7.75577 0 0
-7.70668 0 0
-7.70668 0 0
-7.65759 0 0
-7.65759 0 0
-7.60851 0 0
-7.60851 0 0
-7.55942 0 0
-7.55942 0 0
-7.51033 0 0
-7.51033 0 0
-7.46124 0 0
-7.46124 0 0
-7.41216 0 0
-7.41216 0 0
-7.36307 0 0
-7.36307 0 0
-7.31398 0 0
-7.31398 0 0
-7.26489 0 0
-7.26489 0 0
-7.21581 0 0
-7.21581 0 0
-7.16672 0 0
-7.16672 0 0
-7.11763 0 0
-7.11763 0 0
-7.06855 0 0
-7.06855 0 0
-7.01946 0 0
-7.01946 0 0
-6.97037 0 0
-6.97037 0 0
-6.92128 0 0
-6.92128 0 0
-6.8722 0 0
-6.8722 0 0
-6.82311 0 0
-6.82311 0 0
-6.77402 0 0
-6.77402 0 0
-6.72493 0 0
-6.72493 0 0
-6.67585 0 0
-6.67585 0 0
-6.62676 0 0
-6.62676 0 0
-6.57767 0 0
-6.57767 0 0
-6.52858 0 0
-6.52858 0 0
-6.4795 0 0
-6.4795 0 0
-6.43041 0 0
-6.43041 0 0
-6.38132 0 0
-6.38132 0 0
-6.33223 0 0
-6.33223 0 0
-6.28315 0 0
-6.28315 0 0
-6.23406 0 0
-6.23406 0 0
-6.18497 0 0
-6.18497 0 0
-6.13588 0 0
-6.13588 0 0
-6.0868 0 0
-6.0868 0 0
-6.03771 0 0
-6.03771 0 0
-5.98862 0 0
-5.98862 0 0
-5.93954 0 0
-5.93954 0 0
-5.89045 0 0
-5.89045 0 0
-5.84136 0 0
-5.84136 0 0
-5.79227 0 0
-5.79227 0 0
-5.74319 0 0
-5.74319 0 0
-5.6941 0 0
-5.6941 0 0
-5.64501 0 0
-5.64501 0 0
-5.59592 0 0
-5.59592 0 0
-5.54684 0 0
-5.54684 0 0
-5.49775 0 0
-5.49775 0 0
-5.44866 0 0
-5.44866 0 0
-5.39957 0 0
-5.39957 0 0
-5.35049 0 0
-5.35049 0 0
-5.3014 0 0
-5.3014 0 0
-5.25231 0 0
-5.25231 0 0
-5.20322 0 0
-5.20322 0 0
-5.15414 0 0
-5.15414 0 0
-5.10505 0 0
-5.10505 0 0
-5.05596 0 0
-5.05596 0 0
-5.00688 0 0
-5.00688 0 0
-4.95779 0 0
-4.95779 0 0
-4.9087 0 0
-4.9087 0 0
-4.85961 0 0
-4.85961 0 0
-4.81053 0 0
-4.81053 0 0
-4.76144 0 0
-4.76144 0 0
-4.71235 0 0
-4.71235 0 0
-4.66326 0 0
-4.66326 0 0
-4.61418 0 0
-4.61418 0 0
-4.56509 0 0
-4.56509 0 0
-4.516 0 0
-4.516 0 0
-4.46691 0 0
-4.46691 0 0
-4.41783 0 0
-4.41783 0 0
-4.36874 0 0
-4.36874 0 0
-4.31965 0 0
-4.31965 0 0
-4.27056 0 0
-4.27056 0 0
-4.22148 0 0
-4.22148 0 0
-4.17239 0 0
-4.17239 0 0
-4.1233 0 0
-4.1233 0 0
-4.07421 0 0
-4.07421 0 0
-4.02513 0 0
-4.02513 0 0
-3.97604 0 0
-3.97604 0 0
-3.92695 0 0
-3.92695 0 0
-3.87787 0 0
-3.87787 0 0
-3.82878 0 0
-3.82878 0 0
-3.77969 0 0
-3.77969 0 0
-3.7306 0 0
-3.7306 0 0
-3.68152 0 0
-3.68152 0 0
-3.63243 0 0
-3.63243 0 0
-3.58334 0 0
-3.58334 0 0
-3.53425 0 0
-3.53425 0 0
-3.48517 0 0
-3.48517 0 0
-3.43608 0 0
-3.43608 0 0
-3.38699 0 0
-3.38699 0 0
-3.3379 0 0
-3.3379 0 0
-3.28882 0 0
-3.28882 0 0
-3.23973 0 0
-3.23973 0 0
-3.19064 0 0
-3.19064 0 0
-3.14155 0 0
-3.14155 0 0
-3.09247 0 0
-3.09247 0 0
-3.04338 0 0
-3.04338 0 0
-2.99429 0 0
-2.99429 0 0
-2.9452 0 0
-2.9452 0 0
-2.89612 0 0
-2.89612 0 0
-2.84703 0 0
-2.84703 0 0
-2.79794 0 0
-2.79794 0 0
-2.74886 0 0
-2.74886 0 0
-2.69977 0 0
-2.69977 0 0
-2.65068 0 0
-2.65068 0 0
-2.60159 0 0
-2.60159 0 0
-2.55251 0 0
-2.55251 0 0
-2.50342 0 0
-2.50342 0 0
-2.45433 0 0
-2.45433 0 0
-2.40524 0 0
-2.40524 0 0
-2.35616 0 0
-2.35616 0 0
-2.30707 0 0
-2.30707 0 0
-2.25798 0 0
-2.25798 0 0
-2.20889 0 0
-2.20889 0 0
-2.15981 0 0
-2.15981 0 0
-2.11072 0 0
-2.11072 0 0
-2.06163 0 0
-2.06163 0 0
-2.01254 0 0
-2.01254 0 0
-1.96346 0 0
-1.96346 0 0
-1.91437 0 0
-1.91437 0 0
-1.86528 0 0
-1.86528 0 0
-1.8162 0 0
-1.8162 0 0
-1.76711 0 0
-1.76711 0 0
-1.71802 0 0
-1.71802 0 0
-1.66893 0 0
-1.66893 0 0
-1.61986 0 0
-1.61986 0 0
-1.57079 0 0
-1.5708 0 0
-1.52171 0 0
-1.52171 0 0
-1.47262 0 0
-1.47262 0 0
-1.42353 0 0
-1.42353 0 0
-1.37445 0 0
-1.37445 0 0
-1.32536 0 0
-1.32536 0 0
-1.27627 0 0
-1.27627 0 0
-1.22718 0 0
-1.22718 0 0
-1.1781 0 0
-1.1781 0 0
-1.12901 0 0
-1.12901 0 0
-1.07992 0 0
-1.07992 0 0
-1.03084 0 0
-1.03084 0 0
-0.981748 0 0
-0.981748 0 0
-0.93266 0 0
-0.93266 0 0
-0.883573 0 0
-0.883573 0 0
-0.834486 0 0
-0.834486 0 0
-0.785398 0 0
-0.785398 0 0
-0.736311 0 0
-0.736311 0 0
-0.687223 0 0
-0.687223 0 0
-0.638136 0 0
-0.638136 0 0
-0.589049 0 0
-0.589049 0 0
-0.539961 0 0
-0.539961 0 0
-0.490874 0 0
-0.490874 0 0
-0.441786 0 0
-0.441786 0 0
-0.392699 0 0
-0.392699 0 0
-0.343612 0 0
-0.343612 0 0
-0.294524 0 0
-0.294524 0 0
-0.245437 0 0
-0.245437 0 0
-0.19635 0 0
-0.19635 0 0
-0.147262 0 0
-0.147262 0 0
-0.0981748 0 0
-0.0981748 0 0
-0.0490874 0 0
-0.0490874 0 0
1.45519e-11 0 0
SCALARS potential double 1
LOOKUP_TABLE default
0 0.615644 0.615644 1.22888 1.22888 1.8397 1.8397 2.44812 2.44812 3.05412 3.05412 3.65772 3.65772 4.2589 4.2589 4.85768 4.85768 5.45405 5.45405 6.04801 6.04801 6.63955 6.63955 7.22869 7.22869 7.81542 7.81542 8.39974 8.39974 8.98165 8.98165 9.56115 9.56115 10.1382 10.1382 10.7129 10.7129 11.2852 11.2852 11.8551 11.8551 12.4225 12.4225 12.9875 12.9875 13.5502 13.5502 14.1104 14.1104 14.6682 14.6682 15.2236 15.2236 15.7766 15.7766 16.3272 16.3272 16.8754 16.8754 17.4211 17.4211 17.9645 17.9645 18.5054 18.5054 19.044 19.044 19.5801 19.5801 20.1138 20.1138 20.6451 20.6451 21.174 21.174 21.7005 21.7005 22.2246 22.2246 22.7463 22.7463 23.2655 23.2655 23.7824 23.7824 24.2968 24.2968 24.8089 24.8089 25.3185 25.3185 25.8257 25.8257 26.3305 26.3305 26.8329 26.8329 27.3329 27.3329 27.8305 27.8305 28.3256 28.3256 28.8184 28.8184 29.3087 29.3087 29.7967 29.7967 30.2822 30.2822 30.7653 30.7653 31.246 31.246 31.7243 31.7243 32.2002 32.2002 32.6737 32.6737 33.1447 33.1447 33.6134 33.6134 34.0797 34.0797 34.5435 34.5435 35.0049 35.0049 35.4639 35.4639 35.9206 35.9206 36.3748 36.3748 36.8266 36.8266 37.2759 37.2759 37.7229 37.7229 38.1675 38.1675 38.6096 38.6096 39.0494 39.0494 39.4867 39.4867 39.9216 39.9216 40.3542 40.3542 40.7843 40.7843 41.212 41.212 41.6372 41.6372 42.0601 42.0601 42.4806 42.4806 42.8986 42.8986 43.3143 43.3143 43.7275 43.7275 44.1384 44.1384 44.5468 44.5468 44.9528 44.9528 45.3564 45.3564 45.7576 45.7576 46.1564 46.1564 46.5527 46.5527 46.9467 46.9467 47.3383 47.3383 47.7274 47.7274 48.1141 48.1141 48.4985 48.4985 48.8804 48.8804 49.2599 49.2599 49.637 49.637 50.0117 50.0117 50.3839 50.3839 50.7538 50.7538 51.1213 51.1213 51.4863 51.4863 51.849 51.849 52.2092 52.2092 52.567 52.567 52.9224 52.9224 53.2754 53.2754 53.626 53.626 53.9742 53.9742 54.32 54.32 54.6633 54.6633 55.0043 55.0043 55.3428 55.3428 55.679 55.679 56.0127 56.0127 56.344 56.344 56.6729 56.6729 56.9994 56.9994 57.3235 57.3235 57.6451 57.6451 57.9644 57.9644 58.2813 58.2813 58.5957 58.5957 58.9078 58.9078 59.2174 59.2174 59.5246 59.5246 59.8294 59.8294 60.1318 60.1318 60.4318 60.4318 60.7294 60.7294 61.0246 61.0246 61.3173 61.3173 61.6077 61.6077 61.8956 61.8956 62.1811 62.1811 62.4643 62.4643 62.745 62.745 63.0233 63.0233 63.2992 63.2992 63.5727 63.5727 63.8437 63.8437 64.1124 64.1124 64.3787 64.3787 64.6425 64.6425 64.9039 64.9039 65.163 65.163 65.4196 65.4196 65.6738 65.6738 65.9256 65.9256 66.175 66.175 66.422 66.422 66.6665 66.6665 66.9087 66.9087 67.1484 67.1484 67.3858 67.3858 67.6207 67.6207 67.8532 67.8532 68.0833 68.0833 68.311 68.311 68.5363 68.5363 68.7592 68.7592 68.9797 68.9797 69.1978 69.1978 69.4134 69.4134 69.6267 69.6267 69.8375 69.8375 70.0459 70.0459 70.2519 70.2519 70.4555 70.4555 70.6567 70.6567 70.8555 70.8555 71.0519 71.0519 71.2459 71.2459 71.4374 71.4374 71.6266 71.6266 71.8133 71.8133 71.9977 71.9977 72.1796 72.1796 72.3591 72.3591 72.5362 72.5362 72.7109 72.7109 72.8832 72.8832 73.053 73.053 73.2205 73.2205 73.3856 73.3856 73.5482 73.5482 73.7084 73.7084 73.8663 73.8663 74.0217 74.0217 74.1747 74.1747 74.3253 74.3253 74.4735 74.4735 74.6192 74.6192 74.7626 74.7626 74.9036 74.9036 75.0421 75.0421 75.1783 75.1783 75.312 75.312 75.4433 75.4433 75.5722 75.5722 75.6987 75.6987 75.8228 75.8228 75.9445 75.9445 76.0638 76.0638 76.1806 76.1806 76.2951 76.2951 76.4071 76.4071 76.5167 76.5167 76.624 76.624 76.7288 76.7288 76.8312 76.8312 76.9312 76.9312 77.0288 77.0288 77.1239 77.1239 77.2167 77.2167 77.3071 77.3071 77.395 77.395 77.4806 77.4806 77.5637 77.5637 77.6444 77.6444 77.7227 77.7227 77.7986 77.7986 77.8721 77.8721 77.9432 77.9432 78.0119 78.0119 78.0781 78.0781 78.142 78.142 78.2034 78.2034 78.2625 78.2625 78.3191 78.3191 78.3733 78.3733 78.4251 78.4251 78.4745 78.4745 78.5215 78.5215 78.5661 78.5661 78.6082 78.6082 78.648 78.648 78.6853 78.6853 78.7203 78.7203 78.7528 78.7528 78.7829 78.7829 78.8106 78.8106 78.8359 78.8359 78.8588 78.8588 78.8793 78.8793 78.8974 78.8974 78.913 78.913 78.9263 78.9263 78.9371 78.9371 78.9456 78.9456 78.9516 78.9516 78.9552 78.9552 78.9564 
SCALARS x_coordinate double 1
LOOKUP_TABLE default
0 0.0490874 0.0490874 0.0981748 0.0981748 0.147262 0.147262 0.19635 0.19635 0.245437 0.245437 0.294524 0.294524 0.343612 0.343612 0.392699 0.392699 0.441786 0.441786 0.490874 0.490874 0.539961 0.539961 0.589049 0.589049 0.638136 0.638136 0.687223 0.687223 0.736311 0.736311 0.785398 0.785398 0.834486 0.834486 0.883573 0.883573 0.93266 0.93266 0.981748 0.981748 1.03084 1.03084 1.07992 1.07992 1.12901 1.12901 1.1781 1.1781 1.22718 1.22718 1.27627 1.27627 1.32536 1.32536 1.37445 1.37445 1.42353 1.42353 1.47262 1.47262 1.52171 1.52171 1.5708 1.5708 1.61988 1.61988 1.66897 1.66897 1.71806 1.71806 1.76715 1.76715 1.81623 1.81623 1.86532 1.86532 1.91441 1.91441 1.9635 1.9635 2.01258 2.01258 2.06167 2.06167 2.11076 2.11076 2.15984 2.15984 2.20893 2.20893 2.25802 2.25802 2.30711 2.30711 2.35619 2.35619 2.40528 2.40528 2.45437 2.45437 2.50346 2.50346 2.55254 2.55254 2.60163 2.60163 2.65072 2.65072 2.69981 2.69981 2.74889 2.74889 2.79798 2.79798 2.84707 2.84707 2.89616 2.89616 2.94524 2.94524 2.99433 2.99433 3.04342 3.04342 3.09251 3.09251 3.14159 3.14159 3.19068 3.19068 3.23977 3.23977 3.28885 3.28885 3.33794 3.33794 3.38703 3.38703 3.43612 3.43612 3.4852 3.4852 3.53429 3.53429 3.58338 3.58338 3.63247 3.63247 3.68155 3.68155 3.73064 3.73064 3.77973 3.77973 3.82882 3.82882 3.8779 3.8779 3.92699 3.92699 3.97608 3.97608 4.02517 4.02517 4.07425 4.07425 4.12334 4.12334 4.17243 4.17243 4.22152 4.22152 4.2706 4.2706 4.31969 4.31969 4.36878 4.36878 4.41786 4.41786 4.46695 4.46695 4.51604 4.51604 4.56513 4.56513 4.61421 4.61421 4.6633 4.6633 4.71239 4.71239 4.76148 4.76148 4.81056 4.81056 4.85965 4.85965 4.90874 4.90874 4.95783 4.95783 5.00691 5.00691 5.056 5.056 5.10509 5.10509 5.15418 5.15418 5.20326 5.20326 5.25235 5.25235 5.30144 5.30144 5.35052 5.35052 5.39961 5.39961 5.4487 5.4487 5.49779 5.49779 5.54687 5.54687 5.59596 5.59596 5.64505 5.64505 5.69414 5.69414 5.74322 5.74322 5.79231 5.79231 5.8414 5.8414 5.89049 5.89049 5.93957 5.93957 5.98866 5.98866 6.03775 6.03775 6.08684 6.08684 6.13592 6.13592 6.18501 6.18501 6.2341 6.2341 6.28319 6.28319 6.33227 6.33227 6.38136 6.38136 6.43045 6.43045 6.47953 6.47953 6.52862 6.52862 6.57771 6.57771 6.6268 6.6268 6.67588 6.67588 6.72497 6.72497 6.77406 6.77406 6.82315 6.82315 6.87223 6.87223 6.92132 6.92132 6.97041 6.97041 7.0195 7.0195 7.06858 7.06858 7.11767 7.11767 7.16676 7.16676 7.21585 7.21585 7.26493 7.26493 7.31402 7.31402 7.36311 7.36311 7.4122 7.4122 7.46128 7.46128 7.51037 7.51037 7.55946 7.55946 7.60854 7.60854 7.65763 7.65763 7.70672 7.70672 7.75581 7.75581 7.80489 7.80489 7.85398 7.85398 7.90307 7.90307 7.95216 7.95216 8.00124 8.00124 8.05033 8.05033 8.09942 8.09942 8.14851 8.14851 8.19759 8.19759 8.24668 8.24668 8.29577 8.29577 8.34486 8.34486 8.39394 8.39394 8.44303 8.44303 8.49212 8.49212 8.54121 8.54121 8.59029 8.59029 8.63938 8.63938 8.68847 8.68847 8.73755 8.73755 8.78664 8.78664 8.83573 8.83573 8.88482 8.88482 8.9339 8.9339 8.98299 8.98299 9.03208 9.03208 9.08117 9.08117 9.13025 9.13025 9.17934 9.17934 9.22843 9.22843 9.27752 9.27752 9.3266 9.3266 9.37569 9.37569 9.42478 9.42478 9.47387 9.47387 9.52295 9.52295 9.57204 9.57204 9.62113 9.62113 9.67021 9.67021 9.7193 9.7193 9.76839 9.76839 9.81748 9.81748 9.86656 9.86656 9.91565 9.91565 9.96474 9.96474 10.0138 10.0138 10.0629 10.0629 10.112 10.112 10.1611 10.1611 10.2102 10.2102 10.2593 10.2593 10.3084 10.3084 10.3574 10.3574 10.4065 10.4065 10.4556 10.4556 10.5047 10.5047 10.5538 10.5538 10.6029 10.6029 10.652 10.652 10.701 10.701 10.7501 10.7501 10.7992 10.7992 10.8483 10.8483 10.8974 10.8974 10.9465 10.9465 10.9956 10.9956 11.0447 11.0447 11.0937 11.0937 11.1428 11.1428 11.1919 11.1919 11.241 11.241 11.2901 11.2901 11.3392 11.3392 11.3883 11.3883 11.4374 11.4374 11.4864 11.4864 11.5355 11.5355 11.5846 11.5846 11.6337 11.6337 11.6828 11.6828 11.7319 11.7319 11.781 11.781 11.8301 11.8301 11.8791 11.8791 11.9282 11.9282 11.9773 11.9773 12.0264 12.0264 12.0755 12.0755 12.1246 12.1246 12.1737 12.1737 12.2228 12.2228 12.2718 12.2718 12.3209 12.3209 12.37 12.37 12.4191 12.4191 12.4682 12.4682 12.5173 12.5173 12.5664 
