# vtk DataFile Version 3.0
#This file was generated by the deal.II library on 2026/3/10 at 19:06:44
ASCII
DATASET UNSTRUCTURED_GRID

POINTS 512 double
0 0 0
0.0490874 0 0
0.0490874 0 0
0.0981748 0 0
0.0981748 0 0
0.147262 0 0
0.147262 0 0
0.19635 0 0
0.19635 0 0
0.245437 0 0
0.245437 0 0
0.294524 0 0
0.294524 0 0
0.343612 0 0
0.343612 0 0
0.392699 0 0
0.392699 0 0
0.441786 0 0
0.441786 0 0
0.490874 0 0
0.490874 0 0
0.539961 0 0
0.539961 0 0
0.589049 0 0
0.589049 0 0
0.638136 0 0
0.638136 0 0
0.687223 0 0
0.687223 0 0
0.736311 0 0
0.736311 0 0
0.785398 0 0
0.785398 0 0
0.834486 0 0
0.834486 0 0
0.883573 0 0
0.883573 0 0
0.93266 0 0
0.93266 0 0
0.981748 0 0
0.981748 0 0
1.03084 0 0
1.03084 0 0
1.07992 0 0
1.07992 0 0
1.12901 0 0
1.12901 0 0
1.1781 0 0
1.1781 0 0
1.22718 0 0
1.22718 0 0
1.27627 0 0
1.27627 0 0
1.32536 0 0
1.32536 0 0
1.37445 0 0
1.37445 0 0
1.42353 0 0
1.42353 0 0
1.47262 0 0
1.47262 0 0
1.52171 0 0
1.52171 0 0
1.5708 0 0
1.5708 0 0
1.61988 0 0
1.61988 0 0
1.66897 0 0
1.66897 0 0
1.71806 0 0
1.71806 0 0
1.76715 0 0
1.76715 0 0
1.81623 0 0
1.81623 0 0
1.86532 0 0
1.86532 0 0
1.91441 0 0
1.91441 0 0
1.9635 0 0
1.9635 0 0
2.01258 0 0
2.01258 0 0
2.06167 0 0
2.06167 0 0
2.11076 0 0
2.11076 0 0
2.15984 0 0
2.15984 0 0
2.20893 0 0
2.20893 0 0
2.25802 0 0
2.25802 0 0
2.30711 0 0
2.30711 0 0
2.35619 0 0
2.35619 0 0
2.40528 0 0
2.40528 0 0
2.45437 0 0
2.45437 0 0
2.50346 0 0
2.50346 0 0
2.55254 0 0
2.55254 0 0
2.60163 0 0
2.60163 0 0
2.65072 0 0
2.65072 0 0
2.69981 0 0
2.69981 0 0
2.74889 0 0
2.74889 0 0
2.79798 0 0
2.79798 0 0
2.84707 0 0
2.84707 0 0
2.89616 0 0
2.89616 0 0
2.94524 0 0
2.94524 0 0
2.99433 0 0
2.99433 0 0
3.04342 0 0
3.04342 0 0
3.09251 0 0
3.09251 0 0
3.14159 0 0
3.14159 0 0
3.19068 0 0
3.19068 0 0
3.23977 0 0
3.23977 0 0
3.28885 0 0
3.28885 0 0
3.33794 0 0
3.33794 0 0
3.38703 0 0
3.38703 0 0
3.43612 0 0
3.43612 0 0
3.4852 0 0
3.4852 0 0
3.53429 0 0
3.53429 0 0
3.58338 0 0
3.58338 0 0
3.63247 0 0
3.63247 0 0
3.68155 0 0
3.68155 0 0
3.73064 0 0
3.73064 0 0
3.77973 0 0
3.77973 0 0
3.82882 0 0
3.82882 0 0
3.8779 0 0
3.8779 0 0
3.92699 0 0
3.92699 0 0
3.97608 0 0
3.97608 0 0
4.02517 0 0
4.02517 0 0
4.07425 0 0
4.07425 0 0
4.12334 0 0
4.12334 0 0
4.17243 0 0
4.17243 0 0
4.22152 0 0
4.22152 0 0
4.2706 0 0
4.2706 0 0
4.31969 0 0
4.31969 0 0
4.36878 0 0
4.36878 0 0
4.41786 0 0
4.41786 0 0
4.46695 0 0
4.46695 0 0
4.51604 0 0
4.51604 0 0
4.56513 0 0
4.56513 0 0
4.61421 0 0
4.61421 0 0
4.6633 0 0
4.6633 0 0
4.71239 0 0
4.71239 0 0
4.76148 0 0
4.76148 0 0
4.81056 0 0
4.81056 0 0
4.85965 0 0
4.85965 0 0
4.90874 0 0
4.90874 0 0
4.95783 0 0
4.95783 0 0
5.00691 0 0
5.00691 0 0
5.056 0 0
5.056 0 0
5.10509 0 0
5.10509 0 0
5.15418 0 0
5.15418 0 0
5.20326 0 0
5.20326 0 0
5.25235 0 0
5.25235 0 0
5.30144 0 0
5.30144 0 0
5.35052 0 0
5.35052 0 0
5.39961 0 0
5.39961 0 0
5.4487 0 0
5.4487 0 0
5.49779 0 0
5.49779 0 0
5.54687 0 0
5.54687 0 0
5.59596 0 0
5.59596 0 0
5.64505 0 0
5.64505 0 0
5.69414 0 0
5.69414 0 0
5.74322 0 0
5.74322 0 0
5.79231 0 0
5.79231 0 0
5.8414 0 0
5.8414 0 0
5.89049 0 0
5.89049 0 0
5.93957 0 0
5.93957 0 0
5.98866 0 0
5.98866 0 0
6.03775 0 0
6.03775 0 0
6.08684 0 0
6.08684 0 0
6.13592 0 0
6.13592 0 0
6.18501 0 0
6.18501 0 0
6.2341 0 0
6.2341 0 0
6.28319 0 0
6.28319 0 0
6.33227 0 0
6.33227 0 0
6.38136 0 0
6.38136 0 0
6.43045 0 0
6.43045 0 0
6.47953 0 0
6.47953 0 0
6.52862 0 0
6.52862 0 0
6.57771 0 0
6.57771 0 0
6.6268 0 0
6.6268 0 0
6.67588 0 0
6.67588 0 0
6.72497 0 0
6.72497 0 0
6.77406 0 0
6.77406 0 0
6.82315 0 0
6.82315 0 0
6.87223 0 0
6.87223 0 0
6.92132 0 0
6.92132 0 0
6.97041 0 0
6.97041 0 0
7.0195 0 0
7.0195 0 0
7.06858 0 0
7.06858 0 0
7.11767 0 0
7.11767 0 0
7.16676 0 0
7.16676 0 0
7.21585 0 0
7.21585 0 0
7.26493 0 0
7.26493 0 0
7.31402 0 0
7.31402 0 0
7.36311 0 0
7.36311 0 0
7.4122 0 0
7.4122 0 0
7.46128 0 0
7.46128 0 0
7.51037 0 0
7.51037 0 0
7.55946 0 0
7.55946 0 0
7.60854 0 0
7.60854 0 0
7.65763 0 0
7.65763 0 0
7.70672 0 0
7.70672 0 0
7.75581 0 0
7.75581 0 0
7.80489 0 0
7.80489 0 0
7.85398 0 0
7.85398 0 0
7.90307 0 0
7.90307 0 0
7.95216 0 0
7.95216 0 0
8.00124 0 0
8.00124 0 0
8.05033 0 0
8.05033 0 0
8.09942 0 0
8.09942 0 0
8.14851 0 0
8.14851 0 0
8.19759 0 0
8.19759 0 0
8.24668 0 0
8.24668 0 0
8.29577 0 0
8.29577 0 0
8.34486 0 0
8.34486 0 0
8.39394 0 0
8.39394 0 0
8.44303 0 0
8.44303 0 0
8.49212 0 0
8.49212 0 0
8.54121 0 0
8.54121 0 0
8.59029 0 0
8.59029 0 0
8.63938 0 0
8.63938 0 0
8.68847 0 0
8.68847 0 0
8.73755 0 0
8.73755 0 0
8.78664 0 0
8.78664 0 0
8.83573 0 0
8.83573 0 0
8.88482 0 0
8.88482 0 0
8.9339 0 0
8.9339 0 0
8.98299 0 0
8.98299 0 0
9.03208 0 0
9.03208 0 0
9.08117 0 0
9.08117 0 0
9.13025 0 0
9.13025 0 0
9.17934 0 0
9.17934 0 0
9.22843 0 0
9.22843 0 0
9.27752 0 0
9.27752 0 0
9.3266 0 0
9.3266 0 0
9.37569 0 0
9.37569 0 0
9.42478 0 0
9.42478 0 0
9.47387 0 0
9.47387 0 0
9.52295 0 0
9.52295 0 0
9.57204 0 0
9.57204 0 0
9.62113 0 0
9.62113 0 0
9.67021 0 0
9.67021 0 0
9.7193 0 0
9.7193 0 0
9.76839 0 0
9.76839 0 0
9.81748 0 0
9.81748 0 0
9.86656 0 0
9.86656 0 0
9.91565 0 0
9.91565 0 0
9.96474 0 0
9.96474 0 0
10.0138 0 0
10.0138 0 0
10.0629 0 0
10.0629 0 0
10.112 0 0
10.112 0 0
10.1611 0 0
10.1611 0 0
10.2102 0 0
10.2102 0 0
10.2593 0 0
10.2593 0 0
10.3084 0 0
10.3084 0 0
10.3574 0 0
10.3574 0 0
10.4065 0 0
10.4065 0 0
10.4556 0 0
10.4556 0 0
10.5047 0 0
10.5047 0 0
10.5538 0 0
10.5538 0 0
10.6029 0 0
10.6029 0 0
10.652 0 0
10.652 0 0
10.701 0 0
10.701 0 0
10.7501 0 0
10.7501 0 0
10.7992 0 0
10.7992 0 0
10.8483 0 0
10.8483 0 0
10.8974 0 0
10.8974 0 0
10.9465 0 0
10.9465 0 0
10.9956 0 0
10.9956 0 0
11.0447 0 0
11.0447 0 0
11.0937 0 0
11.0937 0 0
11.1428 0 0
11.1428 0 0
11.1919 0 0
11.1919 0 0
11.241 0 0
11.241 0 0
11.2901 0 0
11.2901 0 0
11.3392 0 0
11.3392 0 0
11.3883 0 0
11.3883 0 0
11.4374 0 0
11.4374 0 0
11.4864 0 0
11.4864 0 0
11.5355 0 0
11.5355 0 0
11.5846 0 0
11.5846 0 0
11.6337 0 0
11.6337 0 0
11.6828 0 0
11.6828 0 0
11.7319 0 0
11.7319 0 0
11.781 0 0
11.781 0 0
11.8301 0 0
11.8301 0 0
11.8791 0 0
11.8791 0 0
11.9282 0 0
11.9282 0 0
11.9773 0 0
11.9773 0 0
12.0264 0 0
12.0264 0 0
12.0755 0 0
12.0755 0 0
12.1246 0 0
12.1246 0 0
12.1737 0 0
12.1737 0 0
12.2228 0 0
12.2228 0 0
12.2718 0 0
12.2718 0 0
12.3209 0 0
12.3209 0 0
12.37 0 0
12.37 0 0
12.4191 0 0
12.4191 0 0
12.4682 0 0
12.4682 0 0
12.5173 0 0
12.5173 0 0
12.5664 0 0

CELLS 256 768
2	0	1
2	2	3
2	4	5
2	6	7
2	8	9
2	10	11
2	12	13
2	14	15
2	16	17
2	18	19
2	20	21
2	22	23
2	24	25
2	26	27
2	28	29
2	30	31
2	32	33
2	34	35
2	36	37
2	38	39
2	40	41
2	42	43
2	44	45
2	46	47
2	48	49
2	50	51
2	52	53
2	54	55
2	56	57
2	58	59
2	60	61
2	62	63
2	64	65
2	66	67
2	68	69
2	70	71
2	72	73
2	74	75
2	76	77
2	78	79
2	80	81
2	82	83
2	84	85
2	86	87
2	88	89
2	90	91
2	92	93
2	94	95
2	96	97
2	98	99
2	100	101
2	102	103
2	104	105
2	106	107
2	108	109
2	110	111
2	112	113
2	114	115
2	116	117
2	118	119
2	120	121
2	122	123
2	124	125
2	126	127
2	128	129
2	130	131
2	132	133
2	134	135
2	136	137
2	138	139
2	140	141
2	142	143
2	144	145
2	146	147
2	148	149
2	150	151
2	152	153
2	154	155
2	156	157
2	158	159
2	160	161
2	162	163
2	164	165
2	166	167
2	168	169
2	170	171
2	172	173
2	174	175
2	176	177
2	178	179
2	180	181
2	182	183
2	184	185
2	186	187
2	188	189
2	190	191
2	192	193
2	194	195
2	196	197
2	198	199
2	200	201
2	202	203
2	204	205
2	206	207
2	208	209
2	210	211
2	212	213
2	214	215
2	216	217
2	218	219
2	220	221
2	222	223
2	224	225
2	226	227
2	228	229
2	230	231
2	232	233
2	234	235
2	236	237
2	238	239
2	240	241
2	242	243
2	244	245
2	246	247
2	248	249
2	250	251
2	252	253
2	254	255
2	256	257
2	258	259
2	260	261
2	262	263
2	264	265
2	266	267
2	268	269
2	270	271
2	272	273
2	274	275
2	276	277
2	278	279
2	280	281
2	282	283
2	284	285
2	286	287
2	288	289
2	290	291
2	292	293
2	294	295
2	296	297
2	298	299
2	300	301
2	302	303
2	304	305
2	306	307
2	308	309
2	310	311
2	312	313
2	314	315
2	316	317
2	318	319
2	320	321
2	322	323
2	324	325
2	326	327
2	328	329
2	330	331
2	332	333
2	334	335
2	336	337
2	338	339
2	340	341
2	342	343
2	344	345
2	346	347
2	348	349
2	350	351
2	352	353
2	354	355
2	356	357
2	358	359
2	360	361
2	362	363
2	364	365
2	366	367
2	368	369
2	370	371
2	372	373
2	374	375
2	376	377
2	378	379
2	380	381
2	382	383
2	384	385
2	386	387
2	388	389
2	390	391
2	392	393
2	394	395
2	396	397
2	398	399
2	400	401
2	402	403
2	404	405
2	406	407
2	408	409
2	410	411
2	412	413
2	414	415
2	416	417
2	418	419
2	420	421
2	422	423
2	424	425
2	426	427
2	428	429
2	430	431
2	432	433
2	434	435
2	436	437
2	438	439
2	440	441
2	442	443
2	444	445
2	446	447
2	448	449
2	450	451
2	452	453
2	454	455
2	456	457
2	458	459
2	460	461
2	462	463
2	464	465
2	466	467
2	468	469
2	470	471
2	472	473
2	474	475
2	476	477
2	478	479
2	480	481
2	482	483
2	484	485
2	486	487
2	488	489
2	490	491
2	492	493
2	494	495
2	496	497
2	498	499
2	500	501
2	502	503
2	504	505
2	506	507
2	508	509
2	510	511

CELL_TYPES 256
 3 3 3 3 3 3 3 3 3 3 3 3 3 3 3 3 3 3 3 3 3 3 3 3 3 3 3 3 3 3 3 3 3 3 3 3 3 3 3 3 3 3 3 3 3 3 3 3 3 3 3 3 3 3 3 3 3 3 3 3 3 3 3 3 3 3 3 3 3 3 3 3 3 3 3 3 3 3 3 3 3 3 3 3 3 3 3 3 3 3 3 3 3 3 3 3 3 3 3 3 3 3 3 3 3 3 3 3 3 3 3 3 3 3 3 3 3 3 3 3 3 3 3 3 3 3 3 3 3 3 3 3 3 3 3 3 3 3 3 3 3 3 3 3 3 3 3 3 3 3 3 3 3 3 3 3 3 3 3 3 3 3 3 3 3 3 3 3 3 3 3 3 3 3 3 3 3 3 3 3 3 3 3 3 3 3 3 3 3 3 3 3 3 3 3 3 3 3 3 3 3 3 3 3 3 3 3 3 3 3 3 3 3 3 3 3 3 3 3 3 3 3 3 3 3 3 3 3 3 3 3 3 3 3 3 3 3 3 3 3 3 3 3 3 3 3 3 3 3 3 3 3 3 3 3 3
POINT_DATA 512
VECTORS electric_field double
-12.1224 0 0
-12.0733 0 0
-12.0733 0 0
-12.0242 0 0
-12.0242 0 0
-11.9751 0 0
-11.9751 0 0
-11.926 0 0
-11.926 0 0
-11.8769 0 0
-11.8769 0 0
-11.8278 0 0
-11.8278 0 0
-11.7787 0 0
-11.7787 0 0
-11.7297 0 0
-11.7297 0 0
-11.6806 0 0
-11.6806 0 0
-11.6315 0 0
-11.6315 0 0
-11.5824 0 0
-11.5824 0 0
-11.5333 0 0
-11.5333 0 0
-11.4842 0 0
-11.4842 0 0
-11.4351 0 0
-11.4351 0 0
-11.386 0 0
-11.386 0 0
-11.337 0 0
-11.337 0 0
-11.2879 0 0
-11.2879 0 0
-11.2388 0 0
-11.2388 0 0
-11.1897 0 0
-11.1897 0 0
-11.1406 0 0
-11.1406 0 0
-11.0915 0 0
-11.0915 0 0
-11.0424 0 0
-11.0424 0 0
-10.9933 0 0
-10.9933 0 0
-10.9443 0 0
-10.9443 0 0
-10.8952 0 0
-10.8952 0 0
-10.8461 0 0
-10.8461 0 0
-10.797 0 0
-10.797 0 0
-10.7479 0 0
-10.7479 0 0
-10.6988 0 0
-10.6988 0 0
-10.6497 0 0
-10.6497 0 0
-10.6006 0 0
-10.6006 0 0
-10.5516 0 0
-10.5516 0 0
-10.5025 0 0
-10.5025 0 0
-10.4534 0 0
-10.4534 0 0
-10.4043 0 0
-10.4043 0 0
-10.3552 0 0
-10.3552 0 0
-10.3061 0 0
-10.3061 0 0
-10.257 0 0
-10.257 0 0
-10.2079 0 0
-10.2079 0 0
-10.1589 0 0
-10.1589 0 0
-10.1098 0 0
-10.1098 0 0
-10.0607 0 0
-10.0607 0 0
-10.0116 0 0
-10.0116 0 0
-9.96251 0 0
-9.96251 0 0
-9.91342 0 0
-9.91342 0 0
-9.86434 0 0
-9.86434 0 0
-9.81525 0 0
-9.81525 0 0
-9.76616 0 0
-9.76616 0 0
-9.71707 0 0
-9.71707 0 0
-9.66799 0 0
-9.66799 0 0
-9.6189 0 0
-9.6189 0 0
-9.56981 0 0
-9.56981 0 0
-9.52072 0 0
-9.52072 0 0
-9.47164 0 0
-9.47164 0 0
-9.42255 0 0
-9.42255 0 0
-9.37346 0 0
-9.37346 0 0
-9.32437 0 0
-9.32437 0 0
-9.27529 0 0
-9.27529 0 0
-9.2262 0 0
-9.2262 0 0
-9.17711 0 0
-9.17711 0 0
-9.12803 0 0
-9.12803 0 0
-9.07894 0 0
-9.07894 0 0
-9.02985 0 0
-9.02985 0 0
-8.98076 0 0
-8.98076 0 0
-8.93167 0 0
-8.93167 0 0
-8.88259 0 0
-8.88259 0 0
-8.8335 0 0
-8.8335 0 0
-8.78441 0 0
-8.78441 0 0
-8.73533 0 0
-8.73533 0 0
-8.68624 0 0
-8.68624 0 0
-8.63715 0 0
-8.63715 0 0
-8.58806 0 0
-8.58806 0 0
-8.53898 0 0
-8.53898 0 0
-8.48989 0 0
-8.48989 0 0
-8.4408 0 0
-8.4408 0 0
-8.39171 0 0
-8.39171 0 0
-8.34263 0 0
-8.34263 0 0
-8.29354 0 0
-8.29354 0 0
-8.24445 0 0
-8.24445 0 0
-8.19536 0 0
-8.19536 0 0
-8.14628 0 0
-8.14628 0 0
-8.09719 0 0
-8.09719 0 0
-8.0481 0 0
-8.0481 0 0
-7.99901 0 0
-7.99901 0 0
-7.94993 0 0
-7.94993 0 0
-7.90084 0 0
-7.90084 0 0
-7.85175 0 0
-7.85175 0 0
-7.80267 0 0
-7.80267 0 0
-7.75358 0 0
-7.75358 0 0
-7.70449 0 0
-7.70449 0 0
-7.6554 0 0
-7.6554 0 0
-7.60632 0 0
-7.60632 0 0
-7.55723 0 0
-7.55723 0 0
-7.50814 0 0
-7.50814 0 0
-7.45905 0 0
-7.45905 0 0
-7.40997 0 0
-7.40997 0 0
-7.36088 0 0
-7.36088 0 0
-7.31179 0 0
-7.31179 0 0
-7.2627 0 0
-7.2627 0 0
-7.21362 0 0
-7.21362 0 0
-7.16453 0 0
-7.16453 0 0
-7.11544 0 0
-7.11544 0 0
-7.06635 0 0
-7.06635 0 0
-7.01727 0 0
-7.01727 0 0
-6.96818 0 0
-6.96818 0 0
-6.91909 0 0
-6.91909 0 0
-6.87001 0 0
-6.87001 0 0
-6.82092 0 0
-6.82092 0 0
-6.77183 0 0
-6.77183 0 0
-6.72274 0 0
-6.72274 0 0
-6.67366 0 0
-6.67366 0 0
-6.62457 0 0
-6.62457 0 0
-6.57548 0 0
-6.57548 0 0
-6.52639 0 0
-6.52639 0 0
-6.47731 0 0
-6.47731 0 0
-6.42822 0 0
-6.42822 0 0
-6.37913 0 0
-6.37913 0 0
-6.33004 0 0
-6.33004 0 0
-6.28096 0 0
-6.28096 0 0
-6.23187 0 0
-6.23187 0 0
-6.18278 0 0
-6.18278 0 0
-6.13369 0 0
-6.13369 0 0
-6.08461 0 0
-6.08461 0 0
-6.03552 0 0
-6.03552 0 0
-5.98643 0 0
-5.98643 0 0
-5.93734 0 0
-5.93734 0 0
-5.88826 0 0
-5.88826 0 0
-5.83917 0 0
-5.83917 0 0
-5.79008 0 0
-5.79008 0 0
-5.74099 0 0
-5.74099 0 0
-5.69191 0 0
-5.69191 0 0
-5.64282 0 0
-5.64282 0 0
-5.59373 0 0
-5.59373 0 0
-5.54465 0 0
-5.54465 0 0
-5.49556 0 0
-5.49556 0 0
-5.44647 0 0
-5.44647 0 0
-5.39738 0 0
-5.39738 0 0
-5.3483 0 0
-5.3483 0 0
-5.29921 0 0
-5.29921 0 0
-5.25012 0 0
-5.25012 0 0
-5.20103 0 0
-5.20103 0 0
-5.15195 0 0
-5.15195 0 0
-5.10286 0 0
-5.10286 0 0
-5.05377 0 0
-5.05377 0 0
-5.00468 0 0
-5.00468 0 0
-4.9556 0 0
-4.9556 0 0
-4.90651 0 0
-4.90651 0 0
-4.85742 0 0
-4.85742 0 0
-4.80833 0 0
-4.80833 0 0
-4.75925 0 0
-4.75925 0 0
-4.71016 0 0
-4.71016 0 0
-4.66107 0 0
-4.66107 0 0
-4.61199 0 0
-4.61199 0 0
-4.5629 0 0
-4.5629 0 0
-4.51381 0 0
-4.51381 0 0
-4.46472 0 0
-4.46472 0 0
-4.41564 0 0
-4.41564 0 0
-4.36655 0 0
-4.36655 0 0
-4.31746 0 0
-4.31746 0 0
-4.26837 0 0
-4.26837 0 0
-4.21929 0 0
-4.21929 0 0
-4.1702 0 0
-4.1702 0 0
-4.12111 0 0
-4.12111 0 0
-4.07202 0 0
-4.07202 0 0
-4.02294 0 0
-4.02294 0 0
-3.97385 0 0
-3.97385 0 0
-3.92476 0 0
-3.92476 0 0
-3.87567 0 0
-3.87567 0 0
-3.82659 0 0
-3.82659 0 0
-3.7775 0 0
-3.7775 0 0
-3.72841 0 0
-3.72841 0 0
-3.67932 0 0
-3.67932 0 0
-3.63024 0 0
-3.63024 0 0
-3.58115 0 0
-3.58115 0 0
-3.53206 0 0
-3.53206 0 0
-3.48298 0 0
-3.48298 0 0
-3.43389 0 0
-3.43389 0 0
-3.3848 0 0
-3.3848 0 0
-3.33571 0 0
-3.33571 0 0
-3.28663 0 0
-3.28663 0 0
-3.23754 0 0
-3.23754 0 0
-3.18845 0 0
-3.18845 0 0
-3.13936 0 0
-3.13936 0 0
-3.09028 0 0
-3.09028 0 0
-3.04119 0 0
-3.04119 0 0
-2.9921 0 0
-2.9921 0 0
-2.94301 0 0
-2.94301 0 0
-2.89393 0 0
-2.89393 0 0
-2.84484 0 0
-2.84484 0 0
-2.79575 0 0
-2.79575 0 0
-2.74666 0 0
-2.74666 0 0
-2.69758 0 0
-2.69758 0 0
-2.64849 0 0
-2.64849 0 0
-2.5994 0 0
-2.5994 0 0
-2.55032 0 0
-2.55024 0 0
-2.50142 0 0
-2.50143 0 0
-2.45234 0 0
-2.45234 0 0
-2.40325 0 0
-2.40325 0 0
-2.35416 0 0
-2.35416 0 0
-2.30508 0 0
-2.30508 0 0
-2.25599 0 0
-2.25599 0 0
-2.2069 0 0
-2.2069 0 0
-2.15781 0 0
-2.15782 0 0
-2.10875 0 0
-2.10875 0 0
-2.05966 0 0
-2.05966 0 0
-2.01057 0 0
-2.01058 0 0
-1.96152 0 0
-1.96153 0 0
-1.91244 0 0
-1.91244 0 0
-1.86336 0 0
-1.86336 0 0
-1.81427 0 0
-1.81427 0 0
-1.76535 0 0
-1.76531 0 0
-1.71622 0 0
-1.71622 0 0
-1.66714 0 0
-1.66714 0 0
-1.61805 0 0
-1.61805 0 0
-1.56896 0 0
-1.56896 0 0
-1.51988 0 0
-1.51988 0 0
-1.47079 0 0
-1.47079 0 0
-1.4217 0 0
-1.4217 0 0
-1.37262 0 0
-1.37262 0 0
-1.32353 0 0
-1.32353 0 0
-1.27444 0 0
-1.27444 0 0
-1.22535 0 0
-1.22535 0 0
-1.17627 0 0
-1.17627 0 0
-1.12718 0 0
-1.12718 0 0
-1.07811 0 0
-1.07805 0 0
-1.02938 0 0
-1.02947 0 0
-0.980834 0 0
-0.98081 0 0
-0.932422 0 0
-0.932493 0 0
-0.884749 0 0
-0.884781 0 0
-0.837932 0 0
-0.837853 0 0
-0.791831 0 0
-0.79183 0 0
-0.746782 0 0
-0.746852 0 0
-0.703152 0 0
-0.703035 0 0
-0.66113 0 0
-0.661123 0 0
-0.620905 0 0
-0.620856 0 0
-0.582119 0 0
-0.582215 0 0
-0.545174 0 0
-0.545355 0 0
-0.510012 0 0
-0.509892 0 0
-0.476401 0 0
-0.476462 0 0
-0.443807 0 0
-0.443781 0 0
-0.412743 0 0
-0.412728 0 0
-0.382966 0 0
-0.382903 0 0
-0.354633 0 0
-0.354748 0 0
-0.328026 0 0
-0.327904 0 0
-0.303109 0 0
-0.303108 0 0
-0.278225 0 0
-0.27824 0 0
-0.254042 0 0
-0.253848 0 0
-0.230351 0 0
-0.230481 0 0
-0.207491 0 0
-0.207526 0 0
-0.184867 0 0
-0.18485 0 0
-0.162304 0 0
-0.162377 0 0
-0.140379 0 0
-0.140188 0 0
-0.119321 0 0
-0.119405 0 0
-0.0981266 0 0
-0.0981748 0 0
-0.0490874 0 0
-0.0490874 0 0
4.00178e-11 0 0
SCALARS potential double 1
LOOKUP_TABLE default
0 0.59385 0.59385 1.18529 1.18529 1.77432 1.77432 2.36094 2.36094 2.94515 2.94515 3.52696 3.52696 4.10635 4.10635 4.68333 4.68333 5.25791 5.25791 5.83007 5.83007 6.39982 6.39982 6.96717 6.96717 7.5321 7.5321 8.09463 8.09463 8.65474 8.65474 9.21245 9.21245 9.76775 9.76775 10.3206 10.3206 10.8711 10.8711 11.4192 11.4192 11.9648 11.9648 12.5081 12.5081 13.0489 13.0489 13.5874 13.5874 14.1234 14.1234 14.657 14.657 15.1882 15.1882 15.717 15.717 16.2434 16.2434 16.7673 16.7673 17.2889 17.2889 17.8081 17.8081 18.3248 18.3248 18.8391 18.8391 19.3511 19.3511 19.8606 19.8606 20.3677 20.3677 20.8724 20.8724 21.3747 21.3747 21.8745 21.8745 22.372 22.372 22.8671 22.8671 23.3597 23.3597 23.8499 23.8499 24.3378 24.3378 24.8232 24.8232 25.3062 25.3062 25.7868 25.7868 26.265 26.265 26.7408 26.7408 27.2141 27.2141 27.6851 27.6851 28.1537 28.1537 28.6198 28.6198 29.0835 29.0835 29.5449 29.5449 30.0038 30.0038 30.4603 30.4603 30.9144 30.9144 31.3661 31.3661 31.8153 31.8153 32.2622 32.2622 32.7067 32.7067 33.1487 33.1487 33.5883 33.5883 34.0256 34.0256 34.4604 34.4604 34.8928 34.8928 35.3228 35.3228 35.7504 35.7504 36.1756 36.1756 36.5983 36.5983 37.0187 37.0187 37.4366 37.4366 37.8522 37.8522 38.2653 38.2653 38.676 38.676 39.0844 39.0844 39.4903 39.4903 39.8937 39.8937 40.2948 40.2948 40.6935 40.6935 41.0898 41.0898 41.4836 41.4836 41.8751 41.8751 42.2641 42.2641 42.6507 42.6507 43.035 43.035 43.4168 43.4168 43.7962 43.7962 44.1731 44.1731 44.5477 44.5477 44.9199 44.9199 45.2897 45.2897 45.657 45.657 46.0219 46.0219 46.3845 46.3845 46.7446 46.7446 47.1023 47.1023 47.4576 47.4576 47.8105 47.8105 48.161 48.161 48.5091 48.5091 48.8547 48.8547 49.198 49.198 49.5388 49.5388 49.8773 49.8773 50.2133 50.2133 50.5469 50.5469 50.8781 50.8781 51.2069 51.2069 51.5333 51.5333 51.8573 51.8573 52.1788 52.1788 52.498 52.498 52.8148 52.8148 53.1291 53.1291 53.441 53.441 53.7505 53.7505 54.0577 54.0577 54.3624 54.3624 54.6646 54.6646 54.9645 54.9645 55.262 55.262 55.5571 55.5571 55.8497 55.8497 56.14 56.14 56.4278 56.4278 56.7132 56.7132 56.9962 56.9962 57.2768 57.2768 57.555 57.555 57.8308 57.8308 58.1042 58.1042 58.3752 58.3752 58.6437 58.6437 58.9099 58.9099 59.1736 59.1736 59.4349 59.4349 59.6939 59.6939 59.9504 59.9504 60.2045 60.2045 60.4562 60.4562 60.7054 60.7054 60.9523 60.9523 61.1968 61.1968 61.4388 61.4388 61.6785 61.6785 61.9157 61.9157 62.1505 62.1505 62.3829 62.3829 62.6129 62.6129 62.8405 62.8405 63.0657 63.0657 63.2885 63.2885 63.5089 63.5089 63.7268 63.7268 63.9424 63.9424 64.1555 64.1555 64.3662 64.3662 64.5746 64.5746 64.7805 64.7805 64.984 64.984 65.1851 65.1851 65.3837 65.3837 65.58 65.58 65.7739 65.7739 65.9653 65.9653 66.1544 66.1544 66.341 66.341 66.5252 66.5252 66.707 66.707 66.8864 66.8864 67.0634 67.0634 67.238 67.238 67.4102 67.4102 67.58 67.58 67.7473 67.7473 67.9123 67.9123 68.0748 68.0748 68.2349 68.2349 68.3926 68.3926 68.5479 68.5479 68.7008 68.7008 68.8513 68.8513 68.9994 68.9994 69.1451 69.1451 69.2883 69.2883 69.4292 69.4292 69.5676 69.5676 69.7037 69.7037 69.8373 69.8373 69.9685 69.9685 70.0973 70.0973 70.2237 70.2237 70.3477 70.3477 70.4693 70.4693 70.5884 70.5884 70.7052 70.7052 70.8196 70.8196 70.9315 70.9315 71.041 71.041 71.1482 71.1482 71.2529 71.2529 71.3552 71.3552 71.4551 71.4551 71.5526 71.5526 71.6477 71.6477 71.7403 71.7403 71.8306 71.8306 71.9185 71.9185 72.0039 72.0039 72.0869 72.0869 72.1676 72.1676 72.2458 72.2458 72.3216 72.3216 72.395 72.395 72.466 72.466 72.5346 72.5346 72.6008 72.6008 72.6645 72.6645 72.7259 72.7259 72.7848 72.7848 72.8414 72.8414 72.8955 72.8955 72.9472 72.9472 72.9965 72.9965 73.0435 73.0435 73.0881 73.0881 73.1304 73.1304 73.1704 73.1704 73.2081 73.2081 73.2437 73.2437 73.2772 73.2772 73.3087 73.3087 73.3382 73.3382 73.3658 73.3658 73.3917 73.3917 73.4159 73.4159 73.4385 73.4385 73.4595 73.4595 73.479 73.479 73.4971 73.4971 73.5139 73.5139 73.5294 73.5294 73.5436 73.5436 73.5567 73.5567 73.5686 73.5686 73.5794 73.5794 73.589 73.589 73.5975 73.5975 73.6049 73.6049 73.6113 73.6113 73.6166 73.6166 73.6203 73.6203 73.6215 
SCALARS x_coordinate double 1
LOOKUP_TABLE default
0 0.0490874 0.0490874 0.0981748 0.0981748 0.147262 0.147262 0.19635 0.19635 0.245437 0.245437 0.294524 0.294524 0.343612 0.343612 0.392699 0.392699 0.441786 0.441786 0.490874 0.490874 0.539961 0.539961 0.589049 0.589049 0.638136 0.638136 0.687223 0.687223 0.736311 0.736311 0.785398 0.785398 0.834486 0.834486 0.883573 0.883573 0.93266 0.93266 0.981748 0.981748 1.03084 1.03084 1.07992 1.07992 1.12901 1.12901 1.1781 1.1781 1.22718 1.22718 1.27627 1.27627 1.32536 1.32536 1.37445 1.37445 1.42353 1.42353 1.47262 1.47262 1.52171 1.52171 1.5708 1.5708 1.61988 1.61988 1.66897 1.66897 1.71806 1.71806 1.76715 1.76715 1.81623 1.81623 1.86532 1.86532 1.91441 1.91441 1.9635 1.9635 2.01258 2.01258 2.06167 2.06167 2.11076 2.11076 2.15984 2.15984 2.20893 2.20893 2.25802 2.25802 2.30711 2.30711 2.35619 2.35619 2.40528 2.40528 2.45437 2.45437 2.50346 2.50346 2.55254 2.55254 2.60163 2.60163 2.65072 2.65072 2.69981 2.69981 2.74889 2.74889 2.79798 2.79798 2.84707 2.84707 2.89616 2.89616 2.94524 2.94524 2.99433 2.99433 3.04342 3.04342 3.09251 3.09251 3.14159 3.14159 3.19068 3.19068 3.23977 3.23977 3.28885 3.28885 3.33794 3.33794 3.38703 3.38703 3.43612 3.43612 3.4852 3.4852 3.53429 3.53429 3.58338 3.58338 3.63247 3.63247 3.68155 3.68155 3.73064 3.73064 3.77973 3.77973 3.82882 3.82882 3.8779 3.8779 3.92699 3.92699 3.97608 3.97608 4.02517 4.02517 4.07425 4.07425 4.12334 4.12334 4.17243 4.17243 4.22152 4.22152 4.2706 4.2706 4.31969 4.31969 4.36878 4.36878 4.41786 4.41786 4.46695 4.46695 4.51604 4.51604 4.56513 4.56513 4.61421 4.61421 4.6633 4.6633 4.71239 4.71239 4.76148 4.76148 4.81056 4.81056 4.85965 4.85965 4.90874 4.90874 4.95783 4.95783 5.00691 5.00691 5.056 5.056 5.10509 5.10509 5.15418 5.15418 5.20326 5.20326 5.25235 5.25235 5.30144 5.30144 5.35052 5.35052 5.39961 5.39961 5.4487 5.4487 5.49779 5.49779 5.54687 5.54687 5.59596 5.59596 5.64505 5.64505 5.69414 5.69414 5.74322 5.74322 5.79231 5.79231 5.8414 5.8414 5.89049 5.89049 5.93957 5.93957 5.98866 5.98866 6.03775 6.03775 6.08684 6.08684 6.13592 6.13592 6.18501 6.18501 6.2341 6.2341 6.28319 6.28319 6.33227 6.33227 6.38136 6.38136 6.43045 6.43045 6.47953 6.47953 6.52862 6.52862 6.57771 6.57771 6.6268 6.6268 6.67588 6.67588 6.72497 6.72497 6.77406 6.77406 6.82315 6.82315 6.87223 6.87223 6.92132 6.92132 6.97041 6.97041 7.0195 7.0195 7.06858 7.06858 7.11767 7.11767 7.16676 7.16676 7.21585 7.21585 7.26493 7.26493 7.31402 7.31402 7.36311 7.36311 7.4122 7.4122 7.46128 7.46128 7.51037 7.51037 7.55946 7.55946 7.60854 7.60854 7.65763 7.65763 7.70672 7.70672 7.75581 7.75581 7.80489 7.80489 7.85398 7.85398 7.90307 7.90307 7.95216 7.95216 8.00124 8.00124 8.05033 8.05033 8.09942 8.09942 8.14851 8.14851 8.19759 8.19759 8.24668 8.24668 8.29577 8.29577 8.34486 8.34486 8.39394 8.39394 8.44303 8.44303 8.49212 8.49212 8.54121 8.54121 8.59029 8.59029 8.63938 8.63938 8.68847 8.68847 8.73755 8.73755 8.78664 8.78664 8.83573 8.83573 8.88482 8.88482 8.9339 8.9339 8.98299 8.98299 9.03208 9.03208 9.08117 9.08117 9.13025 9.13025 9.17934 9.17934 9.22843 9.22843 9.27752 9.27752 9.3266 9.3266 9.37569 9.37569 9.42478 9.42478 9.47387 9.47387 9.52295 9.52295 9.57204 9.57204 9.62113 9.62113 9.67021 9.67021 9.7193 9.7193 9.76839 9.76839 9.81748 9.81748 9.86656 9.86656 9.91565 9.91565 9.96474 9.96474 10.0138 10.0138 10.0629 10.0629 10.112 10.112 10.1611 10.1611 10.2102 10.2102 10.2593 10.2593 10.3084 10.3084 10.3574 10.3574 10.4065 10.4065 10.4556 10.4556 10.5047 10.5047 10.5538 10.5538 10.6029 10.6029 10.652 10.652 10.701 10.701 10.7501 10.7501 10.7992 10.7992 10.8483 10.8483 10.8974 10.8974 10.9465 10.9465 10.9956 10.9956 11.0447 11.0447 11.0937 11.0937 11.1428 11.1428 11.1919 11.1919 11.241 11.241 11.2901 11.2901 11.3392 11.3392 11.3883 11.3883 11.4374 11.4374 11.4864 11.4864 11.5355 11.5355 11.5846 11.5846 11.6337 11.6337 11.6828 11.6828 11.7319 11.7319 11.781 11.781 11.8301 11.8301 11.8791 11.8791 11.9282 11.9282 11.9773 11.9773 12.0264 12.0264 12.0755 12.0755 12.1246 12.1246 12.1737 12.1737 12.2228 12.2228 12.2718 12.2718 12.3209 12.3209 12.37 12.37 12.4191 12.4191 12.4682 12.4682 12.5173 12.5173 12.5664 
