# vtk DataFile Version 3.0
#This file was generated by the deal.II library on 2026/3/10 at 19:06:55
ASCII
DATASET UNSTRUCTURED_GRID

POINTS 512 double
0 0 0
0.0490874 0 0
0.0490874 0 0
0.0981748 0 0
0.0981748 0 0
0.147262 0 0
0.147262 0 0
0.19635 0 0
0.19635 0 0
0.245437 0 0
0.245437 0 0
0.294524 0 0
0.294524 0 0
0.343612 0 0
0.343612 0 0
0.392699 0 0
0.392699 0 0
0.441786 0 0
0.441786 0 0
0.490874 0 0
0.490874 0 0
0.539961 0 0
0.539961 0 0
0.589049 0 0
0.589049 0 0
0.638136 0 0
0.638136 0 0
0.687223 0 0
0.687223 0 0
0.736311 0 0
0.736311 0 0
0.785398 0 0
0.785398 0 0
0.834486 0 0
0.834486 0 0
0.883573 0 0
0.883573 0 0
0.93266 0 0
0.93266 0 0
0.981748 0 0
0.981748 0 0
1.03084 0 0
1.03084 0 0
1.07992 0 0
1.07992 0 0
1.12901 0 0
1.12901 0 0
1.1781 0 0
1.1781 0 0
1.22718 0 0
1.22718 0 0
1.27627 0 0
1.27627 0 0
1.32536 0 0
1.32536 0 0
1.37445 0 0
1.37445 0 0
1.42353 0 0
1.42353 0 0
1.47262 0 0
1.47262 0 0
1.52171 0 0
1.52171 0 0
1.5708 0 0
1.5708 0 0
1.61988 0 0
1.61988 0 0
1.66897 0 0
1.66897 0 0
1.71806 0 0
1.71806 0 0
1.76715 0 0
1.76715 0 0
1.81623 0 0
1.81623 0 0
1.86532 0 0
1.86532 0 0
1.91441 0 0
1.91441 0 0
1.9635 0 0
1.9635 0 0
2.01258 0 0
2.01258 0 0
2.06167 0 0
2.06167 0 0
2.11076 0 0
2.11076 0 0
2.15984 0 0
2.15984 0 0
2.20893 0 0
2.20893 0 0
2.25802 0 0
2.25802 0 0
2.30711 0 0
2.30711 0 0
2.35619 0 0
2.35619 0 0
2.40528 0 0
2.40528 0 0
2.45437 0 0
2.45437 0 0
2.50346 0 0
2.50346 0 0
2.55254 0 0
2.55254 0 0
2.60163 0 0
2.60163 0 0
2.65072 0 0
2.65072 0 0
2.69981 0 0
2.69981 0 0
2.74889 0 0
2.74889 0 0
2.79798 0 0
2.79798 0 0
2.84707 0 0
2.84707 0 0
2.89616 0 0
2.89616 0 0
2.94524 0 0
2.94524 0 0
2.99433 0 0
2.99433 0 0
3.04342 0 0
3.04342 0 0
3.09251 0 0
3.09251 0 0
3.14159 0 0
3.14159 0 0
3.19068 0 0
3.19068 0 0
3.23977 0 0
3.23977 0 0
3.28885 0 0
3.28885 0 0
3.33794 0 0
3.33794 0 0
3.38703 0 0
3.38703 0 0
3.43612 0 0
3.43612 0 0
3.4852 0 0
3.4852 0 0
3.53429 0 0
3.53429 0 0
3.58338 0 0
3.58338 0 0
3.63247 0 0
3.63247 0 0
3.68155 0 0
3.68155 0 0
3.73064 0 0
3.73064 0 0
3.77973 0 0
3.77973 0 0
3.82882 0 0
3.82882 0 0
3.8779 0 0
3.8779 0 0
3.92699 0 0
3.92699 0 0
3.97608 0 0
3.97608 0 0
4.02517 0 0
4.02517 0 0
4.07425 0 0
4.07425 0 0
4.12334 0 0
4.12334 0 0
4.17243 0 0
4.17243 0 0
4.22152 0 0
4.22152 0 0
4.2706 0 0
4.2706 0 0
4.31969 0 0
4.31969 0 0
4.36878 0 0
4.36878 0 0
4.41786 0 0
4.41786 0 0
4.46695 0 0
4.46695 0 0
4.51604 0 0
4.51604 0 0
4.56513 0 0
4.56513 0 0
4.61421 0 0
4.61421 0 0
4.6633 0 0
4.6633 0 0
4.71239 0 0
4.71239 0 0
4.76148 0 0
4.76148 0 0
4.81056 0 0
4.81056 0 0
4.85965 0 0
4.85965 0 0
4.90874 0 0
4.90874 0 0
4.95783 0 0
4.95783 0 0
5.00691 0 0
5.00691 0 0
5.056 0 0
5.056 0 0
5.10509 0 0
5.10509 0 0
5.15418 0 0
5.15418 0 0
5.20326 0 0
5.20326 0 0
5.25235 0 0
5.25235 0 0
5.30144 0 0
5.30144 0 0
5.35052 0 0
5.35052 0 0
5.39961 0 0
5.39961 0 0
5.4487 0 0
5.4487 0 0
5.49779 0 0
5.49779 0 0
5.54687 0 0
5.54687 0 0
5.59596 0 0
5.59596 0 0
5.64505 0 0
5.64505 0 0
5.69414 0 0
5.69414 0 0
5.74322 0 0
5.74322 0 0
5.79231 0 0
5.79231 0 0
5.8414 0 0
5.8414 0 0
5.89049 0 0
5.89049 0 0
5.93957 0 0
5.93957 0 0
5.98866 0 0
5.98866 0 0
6.03775 0 0
6.03775 0 0
6.08684 0 0
6.08684 0 0
6.13592 0 0
6.13592 0 0
6.18501 0 0
6.18501 0 0
6.2341 0 0
6.2341 0 0
6.28319 0 0
6.28319 0 0
6.33227 0 0
6.33227 0 0
6.38136 0 0
6.38136 0 0
6.43045 0 0
6.43045 0 0
6.47953 0 0
6.47953 0 0
6.52862 0 0
6.52862 0 0
6.57771 0 0
6.57771 0 0
6.6268 0 0
6.6268 0 0
6.67588 0 0
6.67588 0 0
6.72497 0 0
6.72497 0 0
6.77406 0 0
6.77406 0 0
6.82315 0 0
6.82315 0 0
6.87223 0 0
6.87223 0 0
6.92132 0 0
6.92132 0 0
6.97041 0 0
6.97041 0 0
7.0195 0 0
7.0195 0 0
7.06858 0 0
7.06858 0 0
7.11767 0 0
7.11767 0 0
7.16676 0 0
7.16676 0 0
7.21585 0 0
7.21585 0 0
7.26493 0 0
7.26493 0 0
7.31402 0 0
7.31402 0 0
7.36311 0 0
7.36311 0 0
7.4122 0 0
7.4122 0 0
7.46128 0 0
7.46128 0 0
7.51037 0 0
7.51037 0 0
7.55946 0 0
7.55946 0 0
7.60854 0 0
7.60854 0 0
7.65763 0 0
7.65763 0 0
7.70672 0 0
7.70672 0 0
7.75581 0 0
7.75581 0 0
7.80489 0 0
7.80489 0 0
7.85398 0 0
7.85398 0 0
7.90307 0 0
7.90307 0 0
7.95216 0 0
7.95216 0 0
8.00124 0 0
8.00124 0 0
8.05033 0 0
8.05033 0 0
8.09942 0 0
8.09942 0 0
8.14851 0 0
8.14851 0 0
8.19759 0 0
8.19759 0 0
8.24668 0 0
8.24668 0 0
8.29577 0 0
8.29577 0 0
8.34486 0 0
8.34486 0 0
8.39394 0 0
8.39394 0 0
8.44303 0 0
8.44303 0 0
8.49212 0 0
8.49212 0 0
8.54121 0 0
8.54121 0 0
8.59029 0 0
8.59029 0 0
8.63938 0 0
8.63938 0 0
8.68847 0 0
8.68847 0 0
8.73755 0 0
8.73755 0 0
8.78664 0 0
8.78664 0 0
8.83573 0 0
8.83573 0 0
8.88482 0 0
8.88482 0 0
8.9339 0 0
8.9339 0 0
8.98299 0 0
8.98299 0 0
9.03208 0 0
9.03208 0 0
9.08117 0 0
9.08117 0 0
9.13025 0 0
9.13025 0 0
9.17934 0 0
9.17934 0 0
9.22843 0 0
9.22843 0 0
9.27752 0 0
9.27752 0 0
9.3266 0 0
9.3266 0 0
9.37569 0 0
9.37569 0 0
9.42478 0 0
9.42478 0 0
9.47387 0 0
9.47387 0 0
9.52295 0 0
9.52295 0 0
9.57204 0 0
9.57204 0 0
9.62113 0 0
9.62113 0 0
9.67021 0 0
9.67021 0 0
9.7193 0 0
9.7193 0 0
9.76839 0 0
9.76839 0 0
9.81748 0 0
9.81748 0 0
9.86656 0 0
9.86656 0 0
9.91565 0 0
9.91565 0 0
9.96474 0 0
9.96474 0 0
10.0138 0 0
10.0138 0 0
10.0629 0 0
10.0629 0 0
10.112 0 0
10.112 0 0
10.1611 0 0
10.1611 0 0
10.2102 0 0
10.2102 0 0
10.2593 0 0
10.2593 0 0
10.3084 0 0
10.3084 0 0
10.3574 0 0
10.3574 0 0
10.4065 0 0
10.4065 0 0
10.4556 0 0
10.4556 0 0
10.5047 0 0
10.5047 0 0
10.5538 0 0
10.5538 0 0
10.6029 0 0
10.6029 0 0
10.652 0 0
10.652 0 0
10.701 0 0
10.701 0 0
10.7501 0 0
10.7501 0 0
10.7992 0 0
10.7992 0 0
10.8483 0 0
10.8483 0 0
10.8974 0 0
10.8974 0 0
10.9465 0 0
10.9465 0 0
10.9956 0 0
10.9956 0 0
11.0447 0 0
11.0447 0 0
11.0937 0 0
11.0937 0 0
11.1428 0 0
11.1428 0 0
11.1919 0 0
11.1919 0 0
11.241 0 0
11.241 0 0
11.2901 0 0
11.2901 0 0
11.3392 0 0
11.3392 0 0
11.3883 0 0
11.3883 0 0
11.4374 0 0
11.4374 0 0
11.4864 0 0
11.4864 0 0
11.5355 0 0
11.5355 0 0
11.5846 0 0
11.5846 0 0
11.6337 0 0
11.6337 0 0
11.6828 0 0
11.6828 0 0
11.7319 0 0
11.7319 0 0
11.781 0 0
11.781 0 0
11.8301 0 0
11.8301 0 0
11.8791 0 0
11.8791 0 0
11.9282 0 0
11.9282 0 0
11.9773 0 0
11.9773 0 0
12.0264 0 0
12.0264 0 0
12.0755 0 0
12.0755 0 0
12.1246 0 0
12.1246 0 0
12.1737 0 0
12.1737 0 0
12.2228 0 0
12.2228 0 0
12.2718 0 0
12.2718 0 0
12.3209 0 0
12.3209 0 0
12.37 0 0
12.37 0 0
12.4191 0 0
12.4191 0 0
12.4682 0 0
12.4682 0 0
12.5173 0 0
12.5173 0 0
12.5664 0 0

CELLS 256 768
2	0	1
2	2	3
2	4	5
2	6	7
2	8	9
2	10	11
2	12	13
2	14	15
2	16	17
2	18	19
2	20	21
2	22	23
2	24	25
2	26	27
2	28	29
2	30	31
2	32	33
2	34	35
2	36	37
2	38	39
2	40	41
2	42	43
2	44	45
2	46	47
2	48	49
2	50	51
2	52	53
2	54	55
2	56	57
2	58	59
2	60	61
2	62	63
2	64	65
2	66	67
2	68	69
2	70	71
2	72	73
2	74	75
2	76	77
2	78	79
2	80	81
2	82	83
2	84	85
2	86	87
2	88	89
2	90	91
2	92	93
2	94	95
2	96	97
2	98	99
2	100	101
2	102	103
2	104	105
2	106	107
2	108	109
2	110	111
2	112	113
2	114	115
2	116	117
2	118	119
2	120	121
2	122	123
2	124	125
2	126	127
2	128	129
2	130	131
2	132	133
2	134	135
2	136	137
2	138	139
2	140	141
2	142	143
2	144	145
2	146	147
2	148	149
2	150	151
2	152	153
2	154	155
2	156	157
2	158	159
2	160	161
2	162	163
2	164	165
2	166	167
2	168	169
2	170	171
2	172	173
2	174	175
2	176	177
2	178	179
2	180	181
2	182	183
2	184	185
2	186	187
2	188	189
2	190	191
2	192	193
2	194	195
2	196	197
2	198	199
2	200	201
2	202	203
2	204	205
2	206	207
2	208	209
2	210	211
2	212	213
2	214	215
2	216	217
2	218	219
2	220	221
2	222	223
2	224	225
2	226	227
2	228	229
2	230	231
2	232	233
2	234	235
2	236	237
2	238	239
2	240	241
2	242	243
2	244	245
2	246	247
2	248	249
2	250	251
2	252	253
2	254	255
2	256	257
2	258	259
2	260	261
2	262	263
2	264	265
2	266	267
2	268	269
2	270	271
2	272	273
2	274	275
2	276	277
2	278	279
2	280	281
2	282	283
2	284	285
2	286	287
2	288	289
2	290	291
2	292	293
2	294	295
2	296	297
2	298	299
2	300	301
2	302	303
2	304	305
2	306	307
2	308	309
2	310	311
2	312	313
2	314	315
2	316	317
2	318	319
2	320	321
2	322	323
2	324	325
2	326	327
2	328	329
2	330	331
2	332	333
2	334	335
2	336	337
2	338	339
2	340	341
2	342	343
2	344	345
2	346	347
2	348	349
2	350	351
2	352	353
2	354	355
2	356	357
2	358	359
2	360	361
2	362	363
2	364	365
2	366	367
2	368	369
2	370	371
2	372	373
2	374	375
2	376	377
2	378	379
2	380	381
2	382	383
2	384	385
2	386	387
2	388	389
2	390	391
2	392	393
2	394	395
2	396	397
2	398	399
2	400	401
2	402	403
2	404	405
2	406	407
2	408	409
2	410	411
2	412	413
2	414	415
2	416	417
2	418	419
2	420	421
2	422	423
2	424	425
2	426	427
2	428	429
2	430	431
2	432	433
2	434	435
2	436	437
2	438	439
2	440	441
2	442	443
2	444	445
2	446	447
2	448	449
2	450	451
2	452	453
2	454	455
2	456	457
2	458	459
2	460	461
2	462	463
2	464	465
2	466	467
2	468	469
2	470	471
2	472	473
2	474	475
2	476	477
2	478	479
2	480	481
2	482	483
2	484	485
2	486	487
2	488	489
2	490	491
2	492	493
2	494	495
2	496	497
2	498	499
2	500	501
2	502	503
2	504	505
2	506	507
2	508	509
2	510	511

CELL_TYPES 256
 3 3 3 3 3 3 3 3 3 3 3 3 3 3 3 3 3 3 3 3 3 3 3 3 3 3 3 3 3 3 3 3 3 3 3 3 3 3 3 3 3 3 3 3 3 3 3 3 3 3 3 3 3 3 3 3 3 3 3 3 3 3 3 3 3 3 3 3 3 3 3 3 3 3 3 3 3 3 3 3 3 3 3 3 3 3 3 3 3 3 3 3 3 3 3 3 3 3 3 3 3 3 3 3 3 3 3 3 3 3 3 3 3 3 3 3 3 3 3 3 3 3 3 3 3 3 3 3 3 3 3 3 3 3 3 3 3 3 3 3 3 3 3 3 3 3 3 3 3 3 3 3 3 3 3 3 3 3 3 3 3 3 3 3 3 3 3 3 3 3 3 3 3 3 3 3 3 3 3 3 3 3 3 3 3 3 3 3 3 3 3 3 3 3 3 3 3 3 3 3 3 3 3 3 3 3 3 3 3 3 3 3 3 3 3 3 3 3 3 3 3 3 3 3 3 3 3 3 3 3 3 3 3 3 3 3 3 3 3 3 3 3 3 3 3 3 3 3 3 3 3 3 3 3 3 3
POINT_DATA 512
VECTORS electric_field double
-12.3867 0 0
-12.3376 0 0
-12.3376 0 0
-12.2886 0 0
-12.2886 0 0
-12.2395 0 0
-12.2395 0 0
-12.1904 0 0
-12.1904 0 0
-12.1413 0 0
-12.1413 0 0
-12.0922 0 0
-12.0922 0 0
-12.0431 0 0
-12.0431 0 0
-11.994 0 0
-11.994 0 0
-11.9449 0 0
-11.9449 0 0
-11.8959 0 0
-11.8959 0 0
-11.8468 0 0
-11.8468 0 0
-11.7977 0 0
-11.7977 0 0
-11.7486 0 0
-11.7486 0 0
-11.6995 0 0
-11.6995 0 0
-11.6504 0 0
-11.6504 0 0
-11.6013 0 0
-11.6013 0 0
-11.5522 0 0
-11.5522 0 0
-11.5032 0 0
-11.5032 0 0
-11.4541 0 0
-11.4541 0 0
-11.405 0 0
-11.405 0 0
-11.3559 0 0
-11.3559 0 0
-11.3068 0 0
-11.3068 0 0
-11.2577 0 0
-11.2577 0 0
-11.2086 0 0
-11.2086 0 0
-11.1595 0 0
-11.1595 0 0
-11.1105 0 0
-11.1105 0 0
-11.0614 0 0
-11.0614 0 0
-11.0123 0 0
-11.0123 0 0
-10.9632 0 0
-10.9632 0 0
-10.9141 0 0
-10.9141 0 0
-10.865 0 0
-10.865 0 0
-10.8159 0 0
-10.8159 0 0
-10.7668 0 0
-10.7668 0 0
-10.7178 0 0
-10.7178 0 0
-10.6687 0 0
-10.6687 0 0
-10.6196 0 0
-10.6196 0 0
-10.5705 0 0
-10.5705 0 0
-10.5214 0 0
-10.5214 0 0
-10.4723 0 0
-10.4723 0 0
-10.4232 0 0
-10.4232 0 0
-10.3741 0 0
-10.3741 0 0
-10.3251 0 0
-10.3251 0 0
-10.276 0 0
-10.276 0 0
-10.2269 0 0
-10.2269 0 0
-10.1778 0 0
-10.1778 0 0
-10.1287 0 0
-10.1287 0 0
-10.0796 0 0
-10.0796 0 0
-10.0305 0 0
-10.0305 0 0
-9.98145 0 0
-9.98145 0 0
-9.93236 0 0
-9.93236 0 0
-9.88327 0 0
-9.88327 0 0
-9.83419 0 0
-9.83419 0 0
-9.7851 0 0
-9.7851 0 0
-9.73601 0 0
-9.73601 0 0
-9.68692 0 0
-9.68692 0 0
-9.63784 0 0
-9.63784 0 0
-9.58875 0 0
-9.58875 0 0
-9.53966 0 0
-9.53966 0 0
-9.49057 0 0
-9.49057 0 0
-9.44149 0 0
-9.44149 0 0
-9.3924 0 0
-9.3924 0 0
-9.34331 0 0
-9.34331 0 0
-9.29422 0 0
-9.29422 0 0
-9.24514 0 0
-9.24514 0 0
-9.19605 0 0
-9.19605 0 0
-9.14696 0 0
-9.14696 0 0
-9.09787 0 0
-9.09787 0 0
-9.04879 0 0
-9.04879 0 0
-8.9997 0 0
-8.9997 0 0
-8.95061 0 0
-8.95061 0 0
-8.90153 0 0
-8.90153 0 0
-8.85244 0 0
-8.85244 0 0
-8.80335 0 0
-8.80335 0 0
-8.75426 0 0
-8.75426 0 0
-8.70518 0 0
-8.70518 0 0
-8.65609 0 0
-8.65609 0 0
-8.607 0 0
-8.607 0 0
-8.55791 0 0
-8.55791 0 0
-8.50883 0 0
-8.50883 0 0
-8.45974 0 0
-8.45974 0 0
-8.41065 0 0
-8.41065 0 0
-8.36156 0 0
-8.36156 0 0
-8.31248 0 0
-8.31248 0 0
-8.26339 0 0
-8.26339 0 0
-8.2143 0 0
-8.2143 0 0
-8.16521 0 0
-8.16521 0 0
-8.11613 0 0
-8.11613 0 0
-8.06704 0 0
-8.06704 0 0
-8.01795 0 0
-8.01795 0 0
-7.96886 0 0
-7.96886 0 0
-7.91978 0 0
-7.91978 0 0
-7.87069 0 0
-7.87069 0 0
-7.8216 0 0
-7.8216 0 0
-7.77252 0 0
-7.77252 0 0
-7.72343 0 0
-7.72343 0 0
-7.67434 0 0
-7.67434 0 0
-7.62525 0 0
-7.62525 0 0
-7.57617 0 0
-7.57617 0 0
-7.52708 0 0
-7.52708 0 0
-7.47799 0 0
-7.47799 0 0
-7.4289 0 0
-7.4289 0 0
-7.37982 0 0
-7.37982 0 0
-7.33073 0 0
-7.33073 0 0
-7.28164 0 0
-7.28164 0 0
-7.23255 0 0
-7.23255 0 0
-7.18347 0 0
-7.18347 0 0
-7.13438 0 0
-7.13438 0 0
-7.08529 0 0
-7.08529 0 0
-7.0362 0 0
-7.0362 0 0
-6.98712 0 0
-6.98712 0 0
-6.93803 0 0
-6.93803 0 0
-6.88894 0 0
-6.88894 0 0
-6.83986 0 0
-6.83986 0 0
-6.79077 0 0
-6.79077 0 0
-6.74168 0 0
-6.74168 0 0
-6.69259 0 0
-6.69259 0 0
-6.64351 0 0
-6.64351 0 0
-6.59442 0 0
-6.59442 0 0
-6.54533 0 0
-6.54533 0 0
-6.49624 0 0
-6.49624 0 0
-6.44716 0 0
-6.44716 0 0
-6.39807 0 0
-6.39807 0 0
-6.34898 0 0
-6.34898 0 0
-6.29989 0 0
-6.29989 0 0
-6.25081 0 0
-6.25081 0 0
-6.20172 0 0
-6.20172 0 0
-6.15263 0 0
-6.15263 0 0
-6.10354 0 0
-6.10354 0 0
-6.05446 0 0
-6.05446 0 0
-6.00537 0 0
-6.00537 0 0
-5.95628 0 0
-5.95628 0 0
-5.90719 0 0
-5.90719 0 0
-5.85811 0 0
-5.85811 0 0
-5.80902 0 0
-5.80902 0 0
-5.75993 0 0
-5.75993 0 0
-5.71085 0 0
-5.71085 0 0
-5.66176 0 0
-5.66176 0 0
-5.61267 0 0
-5.61267 0 0
-5.56358 0 0
-5.56358 0 0
-5.5145 0 0
-5.5145 0 0
-5.46541 0 0
-5.46541 0 0
-5.41632 0 0
-5.41632 0 0
-5.36723 0 0
-5.36723 0 0
-5.31815 0 0
-5.31815 0 0
-5.26906 0 0
-5.26906 0 0
-5.21997 0 0
-5.21997 0 0
-5.17088 0 0
-5.17088 0 0
-5.1218 0 0
-5.1218 0 0
-5.07271 0 0
-5.07271 0 0
-5.02362 0 0
-5.02362 0 0
-4.97453 0 0
-4.97453 0 0
-4.92545 0 0
-4.92545 0 0
-4.87636 0 0
-4.87636 0 0
-4.82727 0 0
-4.82727 0 0
-4.77818 0 0
-4.77818 0 0
-4.7291 0 0
-4.7291 0 0
-4.68001 0 0
-4.68001 0 0
-4.63092 0 0
-4.63092 0 0
-4.58184 0 0
-4.58184 0 0
-4.53275 0 0
-4.53275 0 0
-4.48366 0 0
-4.48366 0 0
-4.43457 0 0
-4.43457 0 0
-4.38549 0 0
-4.38549 0 0
-4.3364 0 0
-4.3364 0 0
-4.28731 0 0
-4.28731 0 0
-4.23822 0 0
-4.23822 0 0
-4.18914 0 0
-4.18914 0 0
-4.14005 0 0
-4.14005 0 0
-4.09096 0 0
-4.09096 0 0
-4.04187 0 0
-4.04187 0 0
-3.99279 0 0
-3.99279 0 0
-3.9437 0 0
-3.9437 0 0
-3.89461 0 0
-3.89461 0 0
-3.84552 0 0
-3.84552 0 0
-3.79644 0 0
-3.79644 0 0
-3.74735 0 0
-3.74735 0 0
-3.69826 0 0
-3.69826 0 0
-3.64918 0 0
-3.64918 0 0
-3.60009 0 0
-3.60009 0 0
-3.551 0 0
-3.551 0 0
-3.50191 0 0
-3.50191 0 0
-3.45283 0 0
-3.45283 0 0
-3.40374 0 0
-3.40374 0 0
-3.35465 0 0
-3.35465 0 0
-3.30556 0 0
-3.30556 0 0
-3.25648 0 0
-3.25648 0 0
-3.20739 0 0
-3.20739 0 0
-3.1583 0 0
-3.1583 0 0
-3.10921 0 0
-3.10921 0 0
-3.06013 0 0
-3.06013 0 0
-3.01104 0 0
-3.01104 0 0
-2.96195 0 0
-2.96195 0 0
-2.91286 0 0
-2.91286 0 0
-2.86378 0 0
-2.86378 0 0
-2.81469 0 0
-2.81469 0 0
-2.7656 0 0
-2.7656 0 0
-2.71651 0 0
-2.71651 0 0
-2.66743 0 0
-2.66741 0 0
-2.61838 0 0
-2.61839 0 0
-2.5693 0 0
-2.5693 0 0
-2.52021 0 0
-2.52021 0 0
-2.47112 0 0
-2.47112 0 0
-2.42204 0 0
-2.42204 0 0
-2.37295 0 0
-2.37295 0 0
-2.32386 0 0
-2.32386 0 0
-2.27477 0 0
-2.27477 0 0
-2.22569 0 0
-2.22569 0 0
-2.1766 0 0
-2.1766 0 0
-2.12751 0 0
-2.12751 0 0
-2.07842 0 0
-2.07842 0 0
-2.02934 0 0
-2.02934 0 0
-1.98025 0 0
-1.98025 0 0
-1.93116 0 0
-1.93116 0 0
-1.88208 0 0
-1.88208 0 0
-1.83299 0 0
-1.83299 0 0
-1.7839 0 0
-1.7839 0 0
-1.73481 0 0
-1.73481 0 0
-1.68573 0 0
-1.68573 0 0
-1.63664 0 0
-1.63664 0 0
-1.58755 0 0
-1.58755 0 0
-1.53846 0 0
-1.53846 0 0
-1.48938 0 0
-1.48938 0 0
-1.4403 0 0
-1.44025 0 0
-1.39133 0 0
-1.39133 0 0
-1.34224 0 0
-1.34224 0 0
-1.29316 0 0
-1.29316 0 0
-1.24407 0 0
-1.24407 0 0
-1.19498 0 0
-1.19499 0 0
-1.1459 0 0
-1.14591 0 0
-1.09682 0 0
-1.09682 0 0
-1.04775 0 0
-1.04776 0 0
-0.998691 0 0
-0.998677 0 0
-0.949695 0 0
-0.949693 0 0
-0.900741 0 0
-0.900761 0 0
-0.85204 0 0
-0.852042 0 0
-0.803744 0 0
-0.80379 0 0
-0.755733 0 0
-0.75578 0 0
-0.708386 0 0
-0.708402 0 0
-0.662052 0 0
-0.662106 0 0
-0.616137 0 0
-0.616162 0 0
-0.570907 0 0
-0.570845 0 0
-0.526822 0 0
-0.526838 0 0
-0.483793 0 0
-0.483771 0 0
-0.442331 0 0
-0.442371 0 0
-0.402067 0 0
-0.402129 0 0
-0.363323 0 0
-0.3632 0 0
-0.325365 0 0
-0.325393 0 0
-0.288824 0 0
-0.288833 0 0
-0.253993 0 0
-0.253873 0 0
-0.220231 0 0
-0.220282 0 0
-0.188264 0 0
-0.188293 0 0
-0.157351 0 0
-0.157302 0 0
-0.127439 0 0
-0.127383 0 0
-0.0981762 0 0
-0.0981748 0 0
-0.0490874 0 0
-0.0490874 0 0
1.45519e-11 0 0
SCALARS potential double 1
LOOKUP_TABLE default
0 0.606827 0.606827 1.21125 1.21125 1.81325 1.81325 2.41285 2.41285 3.01004 3.01004 3.60482 3.60482 4.19719 4.19719 4.78715 4.78715 5.3747 5.3747 5.95984 5.95984 6.54257 6.54257 7.1229 7.1229 7.70081 7.70081 8.27631 8.27631 8.84941 8.84941 9.42009 9.42009 9.98836 9.98836 10.5542 10.5542 11.1177 11.1177 11.6787 11.6787 12.2374 12.2374 12.7936 12.7936 13.3474 13.3474 13.8988 13.8988 14.4478 14.4478 14.9944 14.9944 15.5386 15.5386 16.0803 16.0803 16.6197 16.6197 17.1567 17.1567 17.6912 17.6912 18.2233 18.2233 18.753 18.753 19.2804 19.2804 19.8053 19.8053 20.3278 20.3278 20.8478 20.8478 21.3655 21.3655 21.8808 21.8808 22.3936 22.3936 22.9041 22.9041 23.4121 23.4121 23.9177 23.9177 24.4209 24.4209 24.9218 24.9218 25.4202 25.4202 25.9161 25.9161 26.4097 26.4097 26.9009 26.9009 27.3896 27.3896 27.876 27.876 28.3599 28.3599 28.8415 28.8415 29.3206 29.3206 29.7973 29.7973 30.2716 30.2716 30.7435 30.7435 31.213 31.213 31.68 31.68 32.1447 32.1447 32.607 32.607 33.0668 33.0668 33.5242 33.5242 33.9793 33.9793 34.4319 34.4319 34.8821 34.8821 35.3299 35.3299 35.7753 35.7753 36.2182 36.2182 36.6588 36.6588 37.097 37.097 37.5327 37.5327 37.966 37.966 38.397 38.397 38.8255 38.8255 39.2516 39.2516 39.6753 39.6753 40.0966 40.0966 40.5155 40.5155 40.9319 40.9319 41.346 41.346 41.7577 41.7577 42.1669 42.1669 42.5737 42.5737 42.9782 42.9782 43.3802 43.3802 43.7798 43.7798 44.177 44.177 44.5718 44.5718 44.9641 44.9641 45.3541 45.3541 45.7417 45.7417 46.1268 46.1268 46.5095 46.5095 46.8899 46.8899 47.2678 47.2678 47.6433 47.6433 48.0164 48.0164 48.3871 48.3871 48.7554 48.7554 49.1212 49.1212 49.4847 49.4847 49.8457 49.8457 50.2044 50.2044 50.5606 50.5606 50.9144 50.9144 51.2659 51.2659 51.6149 51.6149 51.9614 51.9614 52.3056 52.3056 52.6474 52.6474 52.9868 52.9868 53.3237 53.3237 53.6583 53.6583 53.9904 53.9904 54.3201 54.3201 54.6475 54.6475 54.9724 54.9724 55.2949 55.2949 55.6149 55.6149 55.9326 55.9326 56.2479 56.2479 56.5608 56.5608 56.8712 56.8712 57.1792 57.1792 57.4849 57.4849 57.7881 57.7881 58.0889 58.0889 58.3873 58.3873 58.6833 58.6833 58.9769 58.9769 59.2681 59.2681 59.5568 59.5568 59.8432 59.8432 60.1271 60.1271 60.4087 60.4087 60.6878 60.6878 60.9645 60.9645 61.2388 61.2388 61.5107 61.5107 61.7802 61.7802 62.0473 62.0473 62.3119 62.3119 62.5742 62.5742 62.834 62.834 63.0915 63.0915 63.3465 63.3465 63.5991 63.5991 63.8493 63.8493 64.0971 64.0971 64.3425 64.3425 64.5855 64.5855 64.8261 64.8261 65.0643 65.0643 65.3 65.3 65.5334 65.5334 65.7643 65.7643 65.9928 65.9928 66.2189 66.2189 66.4426 66.4426 66.6639 66.6639 66.8828 66.8828 67.0993 67.0993 67.3134 67.3134 67.525 67.525 67.7343 67.7343 67.9411 67.9411 68.1455 68.1455 68.3475 68.3475 68.5472 68.5472 68.7444 68.7444 68.9392 68.9392 69.1315 69.1315 69.3215 69.3215 69.5091 69.5091 69.6942 69.6942 69.877 69.877 70.0573 70.0573 70.2352 70.2352 70.4107 70.4107 70.5838 70.5838 70.7545 70.7545 70.9228 70.9228 71.0887 71.0887 71.2522 71.2522 71.4132 71.4132 71.5719 71.5719 71.7281 71.7281 71.8819 71.8819 72.0333 72.0333 72.1824 72.1824 72.329 72.329 72.4731 72.4731 72.6149 72.6149 72.7543 72.7543 72.8913 72.8913 73.0258 73.0258 73.158 73.158 73.2877 73.2877 73.415 73.415 73.5399 73.5399 73.6624 73.6624 73.7825 73.7825 73.9002 73.9002 74.0155 74.0155 74.1284 74.1284 74.2388 74.2388 74.3469 74.3469 74.4525 74.4525 74.5557 74.5557 74.6566 74.6566 74.755 74.755 74.851 74.851 74.9446 74.9446 75.0357 75.0357 75.1245 75.1245 75.2109 75.2109 75.2948 75.2948 75.3764 75.3764 75.4555 75.4555 75.5322 75.5322 75.6065 75.6065 75.6784 75.6784 75.7479 75.7479 75.815 75.815 75.8797 75.8797 75.942 75.942 76.0019 76.0019 76.0593 76.0593 76.1143 76.1143 76.167 76.167 76.2172 76.2172 76.265 76.265 76.3105 76.3105 76.3535 76.3535 76.3941 76.3941 76.4324 76.4324 76.4683 76.4683 76.502 76.502 76.5333 76.5333 76.5624 76.5624 76.5894 76.5894 76.6142 76.6142 76.6369 76.6369 76.6576 76.6576 76.6764 76.6764 76.6933 76.6933 76.7084 76.7084 76.7217 76.7217 76.7333 76.7333 76.7433 76.7433 76.7518 76.7518 76.7588 76.7588 76.7643 76.7643 76.7679 76.7679 76.7691 
SCALARS x_coordinate double 1
LOOKUP_TABLE default
0 0.0490874 0.0490874 0.0981748 0.0981748 0.147262 0.147262 0.19635 0.19635 0.245437 0.245437 0.294524 0.294524 0.343612 0.343612 0.392699 0.392699 0.441786 0.441786 0.490874 0.490874 0.539961 0.539961 0.589049 0.589049 0.638136 0.638136 0.687223 0.687223 0.736311 0.736311 0.785398 0.785398 0.834486 0.834486 0.883573 0.883573 0.93266 0.93266 0.981748 0.981748 1.03084 1.03084 1.07992 1.07992 1.12901 1.12901 1.1781 1.1781 1.22718 1.22718 1.27627 1.27627 1.32536 1.32536 1.37445 1.37445 1.42353 1.42353 1.47262 1.47262 1.52171 1.52171 1.5708 1.5708 1.61988 1.61988 1.66897 1.66897 1.71806 1.71806 1.76715 1.76715 1.81623 1.81623 1.86532 1.86532 1.91441 1.91441 1.9635 1.9635 2.01258 2.01258 2.06167 2.06167 2.11076 2.11076 2.15984 2.15984 2.20893 2.20893 2.25802 2.25802 2.30711 2.30711 2.35619 2.35619 2.40528 2.40528 2.45437 2.45437 2.50346 2.50346 2.55254 2.55254 2.60163 2.60163 2.65072 2.65072 2.69981 2.69981 2.74889 2.74889 2.79798 2.79798 2.84707 2.84707 2.89616 2.89616 2.94524 2.94524 2.99433 2.99433 3.04342 3.04342 3.09251 3.09251 3.14159 3.14159 3.19068 3.19068 3.23977 3.23977 3.28885 3.28885 3.33794 3.33794 3.38703 3.38703 3.43612 3.43612 3.4852 3.4852 3.53429 3.53429 3.58338 3.58338 3.63247 3.63247 3.68155 3.68155 3.73064 3.73064 3.77973 3.77973 3.82882 3.82882 3.8779 3.8779 3.92699 3.92699 3.97608 3.97608 4.02517 4.02517 4.07425 4.07425 4.12334 4.12334 4.17243 4.17243 4.22152 4.22152 4.2706 4.2706 4.31969 4.31969 4.36878 4.36878 4.41786 4.41786 4.46695 4.46695 4.51604 4.51604 4.56513 4.56513 4.61421 4.61421 4.6633 4.6633 4.71239 4.71239 4.76148 4.76148 4.81056 4.81056 4.85965 4.85965 4.90874 4.90874 4.95783 4.95783 5.00691 5.00691 5.056 5.056 5.10509 5.10509 5.15418 5.15418 5.20326 5.20326 5.25235 5.25235 5.30144 5.30144 5.35052 5.35052 5.39961 5.39961 5.4487 5.4487 5.49779 5.49779 5.54687 5.54687 5.59596 5.59596 5.64505 5.64505 5.69414 5.69414 5.74322 5.74322 5.79231 5.79231 5.8414 5.8414 5.89049 5.89049 5.93957 5.93957 5.98866 5.98866 6.03775 6.03775 6.08684 6.08684 6.13592 6.13592 6.18501 6.18501 6.2341 6.2341 6.28319 6.28319 6.33227 6.33227 6.38136 6.38136 6.43045 6.43045 6.47953 6.47953 6.52862 6.52862 6.57771 6.57771 6.6268 6.6268 6.67588 6.67588 6.72497 6.72497 6.77406 6.77406 6.82315 6.82315 6.87223 6.87223 6.92132 6.92132 6.97041 6.97041 7.0195 7.0195 7.06858 7.06858 7.11767 7.11767 7.16676 7.16676 7.21585 7.21585 7.26493 7.26493 7.31402 7.31402 7.36311 7.36311 7.4122 7.4122 7.46128 7.46128 7.51037 7.51037 7.55946 7.55946 7.60854 7.60854 7.65763 7.65763 7.70672 7.70672 7.75581 7.75581 7.80489 7.80489 7.85398 7.85398 7.90307 7.90307 7.95216 7.95216 8.00124 8.00124 8.05033 8.05033 8.09942 8.09942 8.14851 8.14851 8.19759 8.19759 8.24668 8.24668 8.29577 8.29577 8.34486 8.34486 8.39394 8.39394 8.44303 8.44303 8.49212 8.49212 8.54121 8.54121 8.59029 8.59029 8.63938 8.63938 8.68847 8.68847 8.73755 8.73755 8.78664 8.78664 8.83573 8.83573 8.88482 8.88482 8.9339 8.9339 8.98299 8.98299 9.03208 9.03208 9.08117 9.08117 9.13025 9.13025 9.17934 9.17934 9.22843 9.22843 9.27752 9.27752 9.3266 9.3266 9.37569 9.37569 9.42478 9.42478 9.47387 9.47387 9.52295 9.52295 9.57204 9.57204 9.62113 9.62113 9.67021 9.67021 9.7193 9.7193 9.76839 9.76839 9.81748 9.81748 9.86656 9.86656 9.91565 9.91565 9.96474 9.96474 10.0138 10.0138 10.0629 10.0629 10.112 10.112 10.1611 10.1611 10.2102 10.2102 10.2593 10.2593 10.3084 10.3084 10.3574 10.3574 10.4065 10.4065 10.4556 10.4556 10.5047 10.5047 10.5538 10.5538 10.6029 10.6029 10.652 10.652 10.701 10.701 10.7501 10.7501 10.7992 10.7992 10.8483 10.8483 10.8974 10.8974 10.9465 10.9465 10.9956 10.9956 11.0447 11.0447 11.0937 11.0937 11.1428 11.1428 11.1919 11.1919 11.241 11.241 11.2901 11.2901 11.3392 11.3392 11.3883 11.3883 11.4374 11.4374 11.4864 11.4864 11.5355 11.5355 11.5846 11.5846 11.6337 11.6337 11.6828 11.6828 11.7319 11.7319 11.781 11.781 11.8301 11.8301 11.8791 11.8791 11.9282 11.9282 11.9773 11.9773 12.0264 12.0264 12.0755 12.0755 12.1246 12.1246 12.1737 12.1737 12.2228 12.2228 12.2718 12.2718 12.3209 12.3209 12.37 12.37 12.4191 12.4191 12.4682 12.4682 12.5173 12.5173 12.5664 
